<?xml version="1.0"?>
<VTKFile type="UnstructuredGrid">
  <UnstructuredGrid>
  <Piece NumberOfPoints="1224"  NumberOfCells="2290">
    <Points>
      <DataArray type="Float64" NumberOfComponents="3" format="ascii">
0 0 0
0.6 0 0
0.6 0.2 0
3 0.2 0
3 1 0
0 1 0
0.05454545454535233 0 0
0.1090909090906768 0 0
0.1636363636359771 0 0
0.2181818181812728 0 0
0.2727272727265793 0 0
0.3272727272720317 0 0
0.3818181818176247 0 0
0.4363636363632168 0 0
0.4909090909088285 0 0
0.5454545454544089 0 0
0.6 0.03999999999991203 0
0.6 0.07999999999979179 0
0.6 0.1199999999997886 0
0.6 0.1599999999998948 0
0.6510638297871261 0.2 0
0.7021276595742618 0.2 0
0.7531914893613819 0.2 0
0.8042553191485237 0.2 0
0.8553191489356438 0.2 0
0.9063829787228289 0.2 0
0.957446808509926 0.2 0
1.008510638297009 0.2 0
1.059574468084092 0.2 0
1.110638297871174 0.2 0
1.161702127658257 0.2 0
1.21276595744534 0.2 0
1.263829787232422 0.2 0
1.314893617019505 0.2 0
1.365957446806588 0.2 0
1.417021276593671 0.2 0
1.468085106380754 0.2 0
1.519148936167923 0.2 0
1.570212765955006 0.2 0
1.621276595742088 0.2 0
1.672340425529171 0.2 0
1.723404255316254 0.2 0
1.774468085103337 0.2 0
1.825531914890624 0.2 0
1.876595744677951 0.2 0
1.927659574465349 0.2 0
1.978723404252714 0.2 0
2.029787234040074 0.2 0
2.080851063827477 0.2 0
2.131914893614798 0.2 0
2.182978723402204 0.2 0
2.234042553189523 0.2 0
2.285106382976928 0.2 0
2.336170212764247 0.2 0
2.387234042551653 0.2 0
2.438297872338975 0.2 0
2.489361702126377 0.2 0
2.540425531913739 0.2 0
2.591489361701102 0.2 0
2.642553191488421 0.2 0
2.693617021275827 0.2 0
2.744680851063146 0.2 0
2.795744680850551 0.2 0
2.84680851063787 0.2 0
2.897872340425276 0.2 0
2.948936170212618 0.2 0
3 0.2533333333332341 0
3 0.3066666666664725 0
3 0.3599999999996274 0
3 0.413333333332804 0
3 0.4666666666659806 0
3 0.5199999999991571 0
3 0.5733333333323336 0
3 0.6266666666656895 0
3 0.6799999999991551 0
3 0.7333333333326146 0
3 0.7866666666660802 0
3 0.8399999999995775 0
3 0.8933333333330373 0
3 0.9466666666664969 0
2.949152542373491 1 0
2.898305084746983 1 0
2.847457627120474 1 0
2.796610169493702 1 0
2.745762711866469 1 0
2.694915254239208 1 0
2.644067796611963 1 0
2.593220338985156 1 0
2.542372881358647 1 0
2.491525423732018 1 0
2.44067796610481 1 0
2.389830508477549 1 0
2.338983050850287 1 0
2.288135593223026 1 0
2.237288135595765 1 0
2.186440677968504 1 0
2.135593220341243 1 0
2.084745762713982 1 0
2.033898305086721 1 0
1.983050847459614 1 0
1.932203389832729 1 0
1.881355932205844 1 0
1.830508474578958 1 0
1.779661016952073 1 0
1.728813559325189 1 0
1.677966101698303 1 0
1.627118644071418 1 0
1.576271186444533 1 0
1.525423728817648 1 0
1.474576271190575 1 0
1.423728813563314 1 0
1.372881355936053 1 0
1.322033898308791 1 0
1.27118644068153 1 0
1.220338983054269 1 0
1.169491525427008 1 0
1.118644067799747 1 0
1.067796610172485 1 0
1.016949152545224 1 0
0.9661016949179628 1 0
0.9152542372907018 1 0
0.8644067796634407 1 0
0.8135593220361792 1 0
0.7627118644089181 1 0
0.7118644067816566 1 0
0.661016949154396 1 0
0.6101694915271345 1 0
0.5593220338998739 1 0
0.5084745762726124 1 0
0.4576271186453518 1 0
0.4067796610180903 1 0
0.3559322033908292 1 0
0.3050847457635677 1 0
0.2542372881363066 1 0
0.2033898305090456 1 0
0.1525423728817841 1 0
0.101694915254523 1 0
0.05084745762726151 1 0
0 0.9473684210524125 0
0 0.8947368421048248 0
0 0.8421052631576025 0
0 0.7894736842105994 0
0 0.7368421052635962 0
0 0.6842105263165927 0
0 0.6315789473695894 0
0 0.5789473684225861 0
0 0.5263157894755828 0
0 0.4736842105282874 0
0 0.4210526315806998 0
0 0.3684210526331123 0
0 0.3157894736855248 0
0 0.2631578947379374 0
0 0.21052631579035 0
0 0.1578947368427625 0
0 0.1052631578951749 0
0 0.05263157894758741 0
0.4374856279758046 0.955462795473483 0
0.625531914893563 0.2394317949808221 0
0.7891616249544176 0.9557759867023439 0
2.570562443351098 0.9559758769411787 0
2.364406779663917 0.9559648099769389 0
2.161016949154874 0.9559648099769389 0
1.957627118646171 0.9559648099772646 0
1.756856606547665 0.9560078743553572 0
1.553415402058453 0.9561420672712786 0
1.347457627122422 0.95627738856474 0
1.144067796613377 0.9563034567995272 0
0.04146670856173688 0.5498854761242812 0
0.9828861012149002 0.2442383967812095 0
2.465390809289578 0.2421522008426663 0
2.259572257543314 0.243586373321511 0
2.055319178697841 0.24363095694403 0
1.851066099915384 0.2436741865527954 0
1.646810778591931 0.2437170671454607 0
1.442550972205278 0.2437587738062726 0
1.238275543433999 0.2442249255777628 0
0.5808319854219957 0.2417757800606361 0
0.6039807146029165 0.2785115072887754 0
2.951522810440164 0.5995349944823752 0
0.5591131416216563 0.2791940688436214 0
0.5817690965011905 0.3180386921514113 0
0.5363223429032008 0.3181181454258206 0
0.5590799034518541 0.3577335228902347 0
2.671507320584846 0.2416532643303031 0
0.5129751095268966 0.3576683284772433 0
0.5360042291720796 0.3976917483469583 0
0.5824744072527975 0.3977458985417416 0
0.5593202208963615 0.4382323507424581 0
0.6062221806132498 0.4382172989803606 0
0.5831398502988122 0.4790536480492864 0
0.630245509211025 0.4792447281197085 0
0.5373735766893435 0.4817209888486334 0
0.2780994584865757 0.9660670791366374 0
0.9407829849899363 0.9559852449915113 0
0.6069171020766708 0.5203953730037822 0
0.6544691944766102 0.5205851219036783 0
2.724115018794794 0.9563165682871465 0
0.04341732373162228 0.2894490564426765 0
0.6304562046384772 0.5622881188475496 0
0.6786259291441818 0.5621981517123112 0
0.03938236249337418 0.7091098825652095 0
0.2999999999993055 0.04723774929726795 0
0.7024556039582556 0.5200372393771872 0
0.726826368578132 0.562505099575485 0
0.6545296629344706 0.6041261864689124 0
0.6061411599039735 0.6041581669226386 0
2.954333097254252 0.4393531299125908 0
0.7512905139641642 0.5199435586712576 0
0.7757938242112172 0.5624873891767795 0
0.4902278874550028 0.3174350849704655 0
0.4661669324669476 0.3576870257641042 0
0.8003371868304782 0.5195844107098163 0
0.8251782158071723 0.5621174250913318 0
0.6300572939290072 0.6460588488486728 0
0.581677101888915 0.6462390077748084 0
0.7994632498085218 0.6067218912904607 0
0.850068894442807 0.6047738158182728 0
0.8747482025846163 0.5617915498272615 0
0.8998102571129438 0.6045430073239006 0
0.924588798996443 0.5614360364847856 0
0.9497125983499418 0.6046345614192383 0
0.9744389394813738 0.5613114208485291 0
0.9997656958801404 0.604758732930365 0
1.024028015453996 0.5597386087889248 0
1.050046148741532 0.6042836632406788 0
1.075213347289947 0.5607219500906248 0
1.100604808237692 0.6043040651294929 0
1.125727120818654 0.5598592244124957 0
1.151165990249003 0.6040638744783449 0
1.176319565514503 0.5595216793632644 0
1.201793840633129 0.6038781229769293 0
1.226960854257978 0.5600604284234054 0
1.252470704079807 0.6038664424080111 0
1.277198987313166 0.55874807111347 0
1.303148970446812 0.6035341865995129 0
1.328130525802366 0.5586520846649797 0
1.353966012915828 0.6034054551655909 0
1.379205474149696 0.558835304845746 0
1.404820923589671 0.6032503772964327 0
1.430092956912838 0.5587079795953892 0
1.455686300628245 0.6030926920218221 0
1.480963489515269 0.5580480170404921 0
1.506562983627252 0.6028436706904448 0
1.531847734917255 0.5577680566445021 0
1.557453558526421 0.6026435181305781 0
1.582745756648754 0.5575726351194972 0
1.608358176126191 0.6024617369905624 0
1.633656322435163 0.5573842056888257 0
1.659277805706528 0.6022873884346892 0
1.684577462424181 0.5572075399874397 0
1.710203504633815 0.6021111834258887 0
1.735506494091908 0.5570246051384745 0
1.761134606493805 0.6019307913070558 0
1.786441498808711 0.5568475628142857 0
1.812072359676459 0.6017522495250318 0
1.837381834584306 0.5566653603575672 0
1.863017119880456 0.601574020443024 0
1.888326681794851 0.5564884669211013 0
1.913963858781491 0.601395113412113 0
1.939274704592935 0.5563067813822595 0
1.964908406083961 0.6012129143420911 0
1.990224566339525 0.5561292537946573 0
2.015859329864652 0.601032757987411 0
2.041177190815608 0.5559477304122714 0
2.066818109147928 0.600855564813206 0
2.09213259478423 0.5557710179709322 0
2.117774443326183 0.6006760179252703 0
2.143088896138059 0.5555900146741853 0
2.168729305797513 0.6004921726308964 0
2.194045774061603 0.5554125217101814 0
2.219686577151481 0.6003111949874665 0
2.245003702950199 0.5552312296013228 0
2.270641766736839 0.6001298880828497 0
2.295962173634055 0.5550546947866846 0
2.321601310982481 0.599950595338254 0
2.346923922781879 0.5548708301001631 0
2.372568004594504 0.5997713467128002 0
2.397895756972162 0.5547000681173012 0
2.423546697517365 0.5996004731097838 0
2.448884659670238 0.5545095609010697 0
2.474538141419978 0.5994220729206983 0
2.499902931415869 0.5543494429014709 0
2.525546234724433 0.5993228147833797 0
2.550973655834774 0.5541346321759457 0
2.576685338327378 0.5992395038842441 0
2.602182482443039 0.5540180644105763 0
2.958944511946492 0.7598964409357507 0
2.628014314012249 0.5990918128353608 0
0.4429170888396284 0.3159793431387367 0
0.4184631156771032 0.357715436029677 0
0.3946070818022522 0.3157219358498637 0
0.3697276561976696 0.3576135465858128 0
2.449044355814981 0.643990885448769 0
2.24531935830005 0.6444881680698032 0
1.024857369602972 0.6487487015028032 0
2.041498164113345 0.6452136474256573 0
1.837701628146142 0.6459229900926835 0
0.3455853078837237 0.3150377509381005 0
0.3204780172155196 0.3574251905568473 0
0.3449438693484468 0.4002519798591844 0
1.633970683060678 0.6466170330762969 0
1.227333380683899 0.6479317947648683 0
1.430444030483603 0.6473399689389928 0
0.875196942148915 0.6483605753517908 0
0.6057010339261732 0.6883083412871458 0
0.5571396249147901 0.6885103796531055 0
2.653543252321963 0.5527758280498023 0
1.099471497978971 0.5148848291986879 0
2.602427017093663 0.6438096025956825 0
2.653851606946175 0.6437140715169269 0
1.353138019780104 0.5138574114565649 0
1.556762689169365 0.5115839513085039 0
1.760509743411542 0.5109012431757174 0
1.964341412665395 0.510388685431229 0
0.2953909602266698 0.4001745965167012 0
[...]
    <PointData>
      <DataArray type="Float64" NumberOfComponents="3" Name="Velocity" format="ascii">
3.000000122136582 0 0
0 0 0
0 0 0
3.175563334154192 0 0
3.178619867432464 0 0
3.000000000000051 0 0
2.999999821520312 0 0
3.00000060082383 0 0
2.999997831195351 0 0
3.000011516285899 0 0
2.99993307814076 0 0
3.000298357451403 0 0
2.999380494694791 0 0
2.997384616839549 0 0
3.061928367615807 0 0
2.577100518545164 0 0
0 0.006489372784572762 0
0 0.0009666791944288672 0
0 0.001193851144897651 0
0 0.07631557733410085 0
2.233973857089127 0 0
2.883754449411717 0 0
3.001262568644868 0 0
3.002770870000099 0 0
2.999416244254114 0 0
3.000027288848281 0 0
3.000029649043698 0 0
2.999986555012097 0 0
3.000004221475432 0 0
2.999998739033928 0 0
3.000000326099508 0 0
2.999999926701526 0 0
3.000000019037696 0 0
2.999999993457777 0 0
3.000000002193096 0 0
2.999999999406007 0 0
3.000000000126729 0 0
2.999999999980231 0 0
3.000000000001217 0 0
3.000000000000552 0 0
2.999999999999718 0 0
3.00000000000008 0 0
2.999999999999982 0 0
3.000000000000002 0 0
3.000000000000001 0 0
2.999999999999997 0 0
3.000000000000016 0 0
2.999999999999945 0 0
3.000000000000039 0 0
3.000000000000883 0 0
2.999999999994066 0 0
3.000000000015497 0 0
3.0000000000343 0 0
2.999999999505694 0 0
3.000000002205303 0 0
2.999999993426748 0 0
3.000000023803207 0 0
2.999999896260479 0 0
3.000000429593226 0 0
2.999998230592327 0 0
3.000007171619368 0 0
2.999980694937676 0 0
2.999997617463477 0 0
3.00032054605648 0 0
2.997685896193475 0 0
3.012214193062504 0 0
3.178353554848349 0.000575367852460487 0
3.168630653845233 -0.0003329137636343536 0
3.169892988930195 8.612661182975232e-05 0
3.169761703273676 -6.691476385338341e-05 0
3.171569338953383 -0.0002332068358491541 0
3.173225611235893 -5.873223457836554e-05 0
3.171715660229572 0.0003934188201484566 0
3.171040497489433 -0.0004937001485515658 0
3.174450063665629 -6.719899045086449e-06 0
3.172549622773247 0.0001007577108332187 0
3.173338042602831 5.503424981632576e-05 0
3.169920852853066 0.0004166992116793935 0
3.169393673762113 -0.0005605197886110494 0
3.181840925928128 -0.0001926256488740793 0
3.009518528608352 0 0
2.997615090914107 0 0
3.000237474023271 0 0
2.99999204255358 0 0
2.999990761136397 0 0
3.00000448463673 0 0
2.999998698428468 0 0
3.000000302527689 0 0
2.999999933591015 0 0
3.000000017039122 0 0
2.999999994403196 0 0
3.000000001603645 0 0
2.999999999754085 0 0
2.999999999984956 0 0
3.000000000017185 0 0
2.99999999999582 0 0
3.000000000000443 0 0
3.00000000000004 0 0
2.999999999999978 0 0
3.000000000000001 0 0
3 0 0
3.000000000000001 0 0
2.999999999999999 0 0
3 0 0
3 0 0
3 0 0
3.000000000000001 0 0
3 0 0
2.999999999999999 0 0
3.000000000000001 0 0
3.000000000000003 0 0
2.999999999999984 0 0
3.000000000000007 0 0
3.00000000000007 0 0
2.999999999999897 0 0
2.999999999999778 0 0
3.000000000000501 0 0
3.000000000000734 0 0
2.999999999998291 0 0
2.999999999997339 0 0
3.000000000002855 0 0
3.000000000009461 0 0
3.000000000004973 0 0
2.999999999987699 0 0
2.999999999971174 0 0
2.999999999970346 0 0
2.999999999980846 0 0
2.999999999980718 0 0
2.999999999988638 0 0
3.000000000000418 0 0
3.000000000000365 0 0
2.99999999999912 0 0
3.000000000000348 0 0
2.999999999999569 0 0
2.999999999999982 0 0
3.000000000000089 0 0
2.999999999999932 0 0
3.000000000000004 0 0
2.999999999999888 0 0
3.000000000000278 0 0
2.999999999999185 0 0
3.000000000007442 0 0
2.99999999998866 0 0
3.000000000114055 0 0
2.999999999803338 0 0
2.999999999495586 0 0
3.00000000025447 0 0
2.999999999618458 0 0
2.999999998000831 0 0
2.99999999474098 0 0
2.999999987624939 0 0
2.999999997824544 0 0
3.000000031193576 0 0
3.000000063434936 0 0
3.000000090411417 0 0
3.000000088702222 0 0
2.999999999998478 -6.885831114548367e-12 0
2.263874281277086 0.2098573508620048 0
3.000000000004523 -1.015290794844731e-11 0
3.000000125235076 -6.663388764077647e-10 0
2.999999999717917 3.7314926627465e-12 0
3.000000000001271 1.253068251530474e-13 0
2.999999999999998 -5.526063158569313e-16 0
3 1.41896675343272e-16 0
3 -7.55902106857149e-16 0
3.000000000000033 4.52833782680218e-15 0
3.000000000000045 4.827790885772344e-13 0
3.000000000298678 -1.298772158512748e-11 0
2.99998354547385 8.542666851295853e-07 0
3.000000013228842 -8.259605326807486e-11 0
2.999999999945504 9.201024202921216e-13 0
3.000000000000124 -5.673843695590285e-15 0
2.999999999999999 9.950623036510693e-17 0
3.000000000000619 -4.01610737570705e-15 0
3.000000000066001 -1.520373373256161e-12 0
2.999999965861577 1.445343685904037e-09 0
2.464913391210128 0.1801666306320198 0
2.854384052407815 0.1001823714364919 0
3.018253830222117 -4.272131154419411e-05 0
2.950822651610353 0.03515479226400755 0
2.998864290959251 0.007154561693920367 0
3.00363382868026 -0.001090286284827623 0
3.00167120759768 -0.001704343543514595 0
3.000000160491457 1.738718941844927e-07 0
2.999976086401799 -0.0002133773112708979 0
2.999772217849315 0.0001295237919078477 0
2.999843126116473 -0.0001874295002770406 0
2.999957054172183 0.000110694844627121 0
2.999910297168689 0.0002132397432226763 0
3.000018752899876 -2.582558136041498e-05 0
3.000018203567587 -5.830634478634005e-06 0
3.000013991993359 -2.387508633339496e-05 0
3.000000000000532 -8.571152887508691e-13 0
3.00000000000179 5.734520776556878e-12 0
2.999999631799887 -1.099921511444536e-05 0
2.999997310886003 -1.3124072708521e-05 0
3.000003925623761 7.520754756860048e-07 0
3.000000014152628 -2.658004013529654e-09 0
2.999999385032165 5.275375859766221e-06 0
3.000000439102349 4.932231347248126e-06 0
2.999999999975282 -7.324010665072996e-13 0
2.999934951537045 -2.73321236195599e-06 0
2.999994072598434 -4.034668388059265e-06 0
3.000001337543117 2.628630637586114e-06 0
3.000000247036412 -8.709754883237961e-07 0
3.000000205778412 -7.54657352860665e-07 0
3.025520543565863 -5.633518160289657e-05 0
2.999995953393519 3.552591721423317e-06 0
3.000001302264344 -2.501251317041445e-07 0
3.000795470483035 -0.0006408356492042555 0
2.999739458750458 0.0001495799950689794 0
2.999999628177181 4.926057440259465e-06 0
3.000000240179864 -1.254475654159576e-06 0
2.999999899210322 -1.857679773999227e-07 0
2.999999937413479 -2.009571943113061e-09 0
2.999999628590132 -9.673461261759516e-09 0
2.999999911750454 2.821925048234431e-07 0
2.999999556595496 -2.238687768923517e-07 0
3.000000116668589 8.17961729783508e-08 0
2.999999728920933 3.020467834673541e-07 0
3.000000076004956 -6.889225108416609e-08 0
3.00000010142058 5.435995350208106e-08 0
2.999999973430684 -2.381759811759093e-08 0
3.000000102150891 -7.815021065827981e-08 0
2.999999971881071 2.345287204856192e-08 0
2.999999960095341 -4.057193503852773e-10 0
3.000000010827357 3.622659395898576e-10 0
2.999999982203981 1.641851831238369e-08 0
3.000000004315656 -4.646861169344444e-09 0
3.000000014872876 -6.289706053854499e-09 0
2.999999996020702 1.917841160039336e-09 0
2.999999996321325 6.331471909878845e-10 0
3.000000001132317 -2.661849296896448e-10 0
2.999999999629996 3.664344292924881e-10 0
2.999999999999081 -7.776595582877328e-11 0
3.000000000590301 -2.170927370119223e-10 0
2.99999999985435 6.327649415359035e-11 0
2.99999999973602 7.394004532498764e-11 0
3.000000000080953 -2.530215762337529e-11 0
3.000000000087354 -2.026988951041296e-11 0
2.999999999969363 7.879527666178599e-12 0
2.999999999975482 4.863671440955696e-12 0
3.000000000009729 -2.155167536873265e-12 0
3.000000000005927 -1.020701710504031e-12 0
2.999999999997249 5.367640965215418e-13 0
2.999999999998784 1.817623168654638e-13 0
3.000000000000712 -1.237610767766414e-13 0
3.00000000000019 -2.389102876054204e-14 0
2.999999999999831 2.661469164109583e-14 0
2.99999999999999 2.352471463744667e-16 0
3.000000000000036 -4.703644033065063e-15 0
2.999999999999991 1.226576337806293e-15 0
2.999999999999994 7.641099655680195e-16 0
3.000000000000003 -5.763338132726625e-16 0
3 2.223720194345206e-17 0
2.999999999999998 1.224120223465987e-16 0
3.000000000000001 -2.248213374418804e-16 0
3 -4.01246469148935e-17 0
2.999999999999998 3.310870868708912e-16 0
3.000000000000001 -1.787973472428272e-16 0
3 -1.339559898228296e-15 0
3.000000000000001 -1.611028991184456e-17 0
2.999999999999991 3.523943163043226e-15 0
3.000000000000005 8.574028735495883e-16 0
3.000000000000072 -3.615295244962329e-15 0
2.999999999999866 -5.463886604991851e-15 0
2.999999999999766 -1.337337425450498e-14 0
3.000000000001019 3.190010261741226e-14 0
2.999999999999584 9.131810044694808e-14 0
2.99999999999597 -1.503834010391877e-13 0
3.000000000009071 -2.839755458017247e-13 0
3.000000000002092 5.846334718239344e-13 0
2.999999999952513 4.277502460071596e-13 0
3.000000000077309 -1.704193520157117e-12 0
3.000000000080464 6.87887847769718e-13 0
2.999999999511621 1.868478125726904e-12 0
3.000000000514969 -6.741156944548187e-12 0
3.000000001273535 1.394060559555407e-11 0
2.999999995878347 2.392191437910185e-11 0
2.999999999658822 -7.974817480540126e-11 0
3.000000014965959 -4.21759837672198e-11 0
2.999999995014102 -9.07457777114206e-11 0
2.999999956035979 -5.099513964928516e-11 0
3.000000003670826 3.298695728533512e-09 0
3.000000151243343 8.134204901457563e-10 0
3.000000098506157 -2.208422970377489e-08 0
3.033289802392826 2.704576567651609e-05 0
2.999999323891427 -5.743740494105355e-10 0
2.99953860912905 0.0001631693305840535 0
3.000057087935954 -1.030852697936092e-05 0
3.000040174988708 2.212955296167033e-06 0
3.000017613531154 -9.394915983100955e-06 0
2.999999999841972 2.515460937140785e-11 0
3.000000000003149 3.8054264943859e-14 0
3.000000009163836 6.165731063211088e-09 0
2.999999999999985 -1.292966622783638e-14 0
3 1.071727502904513e-16 0
3.000013621334467 -5.696196595021464e-06 0
2.999990555927992 2.646772391733435e-06 0
2.999992872947626 3.050033441341716e-06 0
2.999999999999749 4.96656285852144e-14 0
3.00000000084776 -5.171067590960887e-10 0
2.999999999980307 7.104305552615925e-12 0
3.000000025554094 -6.73234704999726e-08 0
3.00000002631908 1.192369011625597e-07 0
3.00000001358285 3.11592232032538e-08 0
2.999999236449633 8.792922838838517e-08 0
3.000000044748546 -4.53109073515459e-08 0
3.000000101300306 1.747420261940887e-08 0
2.999999172977263 -6.939425419919731e-08 0
3.000000000592796 -1.570879485315418e-10 0
2.999999999999573 8.423846034093348e-14 0
2.999999999999982 1.617260990484371e-15 0
3.000000000000003 1.673959386866783e-15 0
3.000001906375271 -3.726076941458262e-07 0
3.000001734750249 -6.659744196764442e-07 0
2.999999999999452 -1.702965252674179e-14 0
3.000000000622987 -3.04521445077244e-11 0
3.000000217497454 -8.847174980061691e-09 0
2.999996908455 -1.675321740742348e-05 0
2.999999616778664 -1.031963023045811e-07 0
2.999999149718155 -5.957139602428855e-09 0
3.000003029153165 -1.168756382003232e-07 0
2.999999994371335 -3.430967628924577e-08 0
2.999999987585787 -4.445659383706895e-08 0
2.999999998335551 -1.072380115151085e-08 0
3.000000015568878 -3.522771057116382e-08 0
2.999999996901352 7.938006555296541e-09 0
3.000000010980993 -2.650244696818377e-08 0
2.999999997543835 5.446706431084645e-09 0
2.999999994664152 5.664589097988809e-09 0
3.000000001528431 -1.930598978147218e-09 0
2.999999995189514 5.250826847031753e-09 0
3.000000000667515 -6.995178821399009e-10 0
3.00000000262353 -2.084912647585063e-09 0
1.775875692234332 0.009897514116248229 0
2.999487795541373 0.0001140232591870011 0
2.999999999334797 5.293169118894961e-10 0
2.999994559597218 1.106144458042394e-06 0
3.000261401172523 6.593185055860745e-06 0
2.999999802387496 -1.436441135680817e-08 0
2.999628764137648 -0.0001364963200192385 0
3.000000000110946 -1.523901186819501e-10 0
2.999998715385226 3.220680992043704e-09 0
3.000000166172834 -5.709485695114107e-10 0
3.000006210699905 -1.723906868316437e-08 0
2.999993800726287 8.768356614684029e-07 0
2.986173017443942 0.01006677172494955 0
3.000000001318544 8.324282052298899e-09 0
3.000001054708626 -2.202866788848231e-07 0
3.000000002388509 -4.506817930119485e-10 0
2.999999995542128 -6.221264175885461e-10 0
2.999988269528148 1.550841959724458e-06 0
3.000002233351573 -5.559619377671266e-07 0
2.999999999998109 8.3511996824687e-14 0
3.00000000005996 5.595325225663317e-11 0
3.000000000000865 -1.165511513202981e-13 0
3 8.265893362454198e-17 0
2.999999999999984 2.818352478435997e-15 0
2.999999999997054 7.31256433251124e-13 0
3.000000000001055 -7.172827948511625e-14 0
2.999999999999999 7.215501728418527e-16 0
3.000000000009444 1.253201002436328e-11 0
3.000000000013955 -1.928468043591354e-13 0
2.999999999999995 3.964187046733217e-16 0
3.000000304359657 -4.404830805982106e-08 0
2.999999997478727 6.652035472663689e-11 0
3.000000000043566 4.445189708414966e-12 0
3.000000000000045 1.018737306328755e-14 0
2.999999999999992 3.108658060688975e-15 0
3.000000009270413 1.125844613686905e-10 0
3.000000000000027 -1.701235597573527e-12 0
2.99999999999992 -9.528942786642139e-14 0
2.999999999967328 5.656819256538731e-13 0
3 -1.759123114526487e-16 0
3.000000000000002 -2.07466207917066e-16 0
2.999999999999729 1.15871506939475e-13 0
2.999999996456805 6.812344094776793e-10 0
3.000000000000085 1.129865874193374e-14 0
3 1.133817433860239e-16 0
2.999999999999787 2.607026733818033e-14 0
3.000000000032844 -5.92380902494969e-12 0
2.999999999528233 3.666542909209169e-12 0
2.999999999956234 -1.542573828769107e-12 0
3.000000014127739 -2.684116399335228e-09 0
3.000000176935179 4.889349253964147e-09 0
3.000000022173617 -2.560324386178453e-08 0
3.000199365929831 -3.930614290487412e-06 0
2.995541952203429 9.700581826067338e-05 0
3.000000016496849 -3.61225877804448e-10 0
2.99999993177783 -7.537715864627192e-08 0
2.999999999549316 5.779630588264155e-10 0
3.000020874624505 -0.0006619823302469013 0
2.999999896023672 5.319855211831518e-08 0
3.00000000018684 -1.207722179683246e-10 0
2.999999996461172 3.033866871055788e-09 0
3.000000003426506 -2.062732399584282e-09 0
2.999974977559107 1.076970821051847e-07 0
2.99999915977171 1.37439783966158e-08 0
3.000000198768442 -8.788935262979493e-09 0
3.000000000670468 -2.132518816924457e-09 0
3.000000000032371 3.917409768421209e-11 0
2.999999961034317 1.125803505797152e-07 0
2.999982075499159 -1.689042740986845e-06 0
3.000000000101323 -7.139924775823696e-11 0
2.999997705495715 1.969971146402856e-06 0
2.999978442291215 3.53578862756742e-06 0
3.000006654771939 -1.213636119247676e-06 0
2.999999628513918 1.204231690933199e-07 0
2.999994409080912 -8.112386496491805e-07 0
2.999980373735092 1.201553947796255e-06 0
3.026704416371722 0.0002234396460576195 0
3.015440401416842 -0.000241388808512013 0
3.000000797976075 -5.580198613475639e-07 0
2.999999999936179 4.016062129139737e-11 0
2.99999265057536 7.278751587203648e-07 0
3.000030479867345 -2.354337913996141e-05 0
2.999998898444958 -1.514720405591105e-05 0
2.999974035511044 -5.313766743465348e-07 0
2.999999883686179 4.27894088363572e-08 0
2.909393554072721 0.02635134049701751 0
3.000000759813014 -5.764268589499642e-08 0
2.999999923549728 3.565763814494877e-08 0
3.00000004950317 -1.356759551813666e-08 0
3.000000052689942 -2.143317512364645e-08 0
2.999998161747437 3.000617590020687e-07 0
2.999999999998716 -1.941914300036598e-12 0
3.00004694339315 2.571417296551384e-05 0
3.00004398098178 -3.506860978173878e-05 0
2.999888921253393 0.0001754147087785612 0
3.000148108189989 -4.859284715535882e-06 0
3.000016322969259 4.119878642602188e-07 0
3.000000000010818 -5.882469324725605e-12 0
3.000000000032398 -2.32758380548601e-11 0
3.000000089919267 -1.434038000007332e-08 0
2.999999997876563 2.225136839100023e-09 0
2.999999948195697 2.173811667384143e-09 0
2.999999998893996 -2.15597616699326e-10 0
3.000000015093177 -4.588376186614632e-10 0
2.999999998566125 1.067820120268209e-11 0
2.999999996224106 1.084439958181463e-10 0
3.000000001200035 -1.913920459717382e-11 0
3.00000000044695 -2.433220155899379e-11 0
2.999999999660112 1.304638256623102e-11 0
3.000000000060077 3.435954142219782e-12 0
3.000000000032821 -4.591087881614568e-12 0
2.999999999967678 7.442824755097191e-14 0
3.00000000000686 1.01437986094232e-12 0
3.000000000004178 -1.349740786555383e-13 0
2.999999999997222 -1.160876132172521e-13 0
3.000000000000673 -2.112316911802339e-14 0
3.000000000000218 -5.802244175479479e-15 0
2.999999999999597 4.533774024964511e-14 0
3.000000000000116 1.207371297019146e-16 0
3.000000000000079 -2.45249413814366e-14 0
2.999999999999951 5.229023856428738e-15 0
2.999999999999997 7.965038127813833e-15 0
3.000000000000008 -3.889502285316125e-15 0
2.999999999999998 -1.463516291117509e-15 0
3 1.595318328450543e-15 0
3.000000000000001 -1.436113277485905e-16 0
3.000000000000001 -4.22357359456291e-16 0
3 3.070613369004112e-16 0
3 1.925084838635713e-16 0
3 -1.315683042679254e-16 0
3.000000000000001 -1.420823027002138e-16 0
3.000000000000001 2.308566665110679e-16 0
3.000000000000001 1.022857512675879e-16 0
3.000000000000002 -8.978900232348177e-16 0
3.000000000000002 -1.034124607843986e-15 0
2.999999999999988 3.903405778153798e-15 0
2.999999999999993 3.551408452017232e-15 0
3.00000000000004 -1.444219459010087e-14 0
3.000000000000012 -8.748257632551468e-15 0
2.999999999999919 3.98268614395537e-14 0
3.000000000000009 6.57989010467437e-15 0
3.000000000000048 -6.204189570880895e-14 0
2.999999999999883 3.829965626782655e-14 0
3.000000000000377 -5.77722443111585e-14 0
3.000000000000273 -1.841806923293876e-13 0
2.999999999998483 7.053775456504174e-13 0
2.999999999999978 3.423484858064729e-13 0
3.00000000000204 -2.106141072710172e-12 0
2.999999999998508 1.825109211185346e-13 0
3.00000000000356 1.884481616092498e-12 0
3.000000000003089 -2.566061207847468e-12 0
2.999999999981392 8.111147959138516e-12 0
3.000000000002502 4.88363322855901e-12 0
3.000000000014653 -3.133359880209812e-11 0
2.999999999981488 4.337313195327025e-12 0
3.000000000069828 2.088464955917136e-11 0
3.000000000007465 -3.269245247088324e-11 0
2.999999999860476 1.323016295085211e-10 0
3.000000000072596 2.102696875737278e-11 0
2.999999999807836 -2.663659520244843e-10 0
2.999999999942679 1.095781198306387e-10 0
3.000000000571459 -2.618615658249618e-10 0
2.999999999772299 -1.467069969500949e-10 0
3.000000000570485 1.132281497940962e-09 0
3.000000000080305 -3.603567214810657e-10 0
2.99999999874067 7.692337430224939e-10 0
3.000000000693892 3.84309220627998e-10 0
2.999999997368256 -3.071520165340025e-09 0
3.000000000458567 1.196574633908072e-09 0
3.000000000032418 -4.222080355058566e-09 0
2.999999999232767 9.638474513764671e-11 0
2.999974918521916 9.95670372094553e-07 0
3.00014166702863 3.666934359703735e-06 0
2.999999985751301 8.100631825526092e-09 0
3.000000003002819 -7.802568950817342e-10 0
2.999995760895308 9.691495640624367e-07 0
2.999966427284814 7.478034424129041e-06 0
3.000253513990892 -6.033581038538776e-06 0
3.000000004270648 2.306810347651321e-09 0
2.99999999812007 -2.428384184543822e-09 0
2.999999996678552 1.466300549766632e-08 0
2.999999941673382 4.741972570131652e-09 0
3.000114195991833 -1.283831692750097e-06 0
3.00015020416745 4.632068493175699e-06 0
2.999634242624872 -4.760036042839651e-05 0
3.00026038568484 3.557103357098824e-06 0
2.999978948646727 1.206865754465371e-06 0
3.000099596232312 -1.844238899197179e-06 0
2.999970825779206 1.455532245772625e-07 0
2.999997449527384 -3.524146830839281e-06 0
2.999988701265877 1.172065630207364e-06 0
2.999972949689333 -2.011842345855983e-07 0
3.000002794483075 3.816229589802272e-08 0
3.000225045152213 -8.39939381288779e-07 0
3.00000377461514 -1.166755912453449e-07 0
2.999999687283136 -2.751539730195105e-08 0
3.00000003310026 -1.185442372463574e-07 0
3.000000814192028 -6.339869165673049e-07 0
2.999999983301147 4.356768938013758e-09 0
2.999999999789728 -2.557913850425348e-10 0
3.000000200308686 -1.177071087163114e-08 0
3.000000000000005 -3.5490726056558e-16 0
2.944715889695021 -0.00270696318735356 0
2.999999131046375 -9.930146726296395e-09 0
2.999999967747298 1.180117194151357e-08 0
3.000000206470686 6.672309843434912e-09 0
3.000000034138908 -2.3230073370205e-09 0
2.999999945797851 -1.943834975305785e-09 0
2.999999989699459 2.010272671537411e-10 0
3.00000001565499 3.807980002771289e-10 0
3.000000000579491 -2.362026453503036e-11 0