<?xml version="1.0"?>
<VTKFile type="UnstructuredGrid">
  <UnstructuredGrid>
  <Piece NumberOfPoints="1224"  NumberOfCells="2290">
    <Points>
      <DataArray type="Float64" NumberOfComponents="3" format="ascii">
0 0 0
0.6 0 0
0.6 0.2 0
3 0.2 0
3 1 0
0 1 0
0.05454545454535233 0 0
0.1090909090906768 0 0
0.1636363636359771 0 0
0.2181818181812728 0 0
0.2727272727265793 0 0
0.3272727272720317 0 0
0.3818181818176247 0 0
0.4363636363632168 0 0
0.4909090909088285 0 0
0.5454545454544089 0 0
0.6 0.03999999999991203 0
0.6 0.07999999999979179 0
0.6 0.1199999999997886 0
0.6 0.1599999999998948 0
0.6510638297871261 0.2 0
0.7021276595742618 0.2 0
0.7531914893613819 0.2 0
0.8042553191485237 0.2 0
0.8553191489356438 0.2 0
0.9063829787228289 0.2 0
0.957446808509926 0.2 0
1.008510638297009 0.2 0
1.059574468084092 0.2 0
1.110638297871174 0.2 0
1.161702127658257 0.2 0
1.21276595744534 0.2 0
1.263829787232422 0.2 0
1.314893617019505 0.2 0
1.365957446806588 0.2 0
1.417021276593671 0.2 0
1.468085106380754 0.2 0
1.519148936167923 0.2 0
1.570212765955006 0.2 0
1.621276595742088 0.2 0
1.672340425529171 0.2 0
1.723404255316254 0.2 0
1.774468085103337 0.2 0
1.825531914890624 0.2 0
1.876595744677951 0.2 0
1.927659574465349 0.2 0
1.978723404252714 0.2 0
2.029787234040074 0.2 0
2.080851063827477 0.2 0
2.131914893614798 0.2 0
2.182978723402204 0.2 0
2.234042553189523 0.2 0
2.285106382976928 0.2 0
2.336170212764247 0.2 0
2.387234042551653 0.2 0
2.438297872338975 0.2 0
2.489361702126377 0.2 0
2.540425531913739 0.2 0
2.591489361701102 0.2 0
2.642553191488421 0.2 0
2.693617021275827 0.2 0
2.744680851063146 0.2 0
2.795744680850551 0.2 0
2.84680851063787 0.2 0
2.897872340425276 0.2 0
2.948936170212618 0.2 0
3 0.2533333333332341 0
3 0.3066666666664725 0
3 0.3599999999996274 0
3 0.413333333332804 0
3 0.4666666666659806 0
3 0.5199999999991571 0
3 0.5733333333323336 0
3 0.6266666666656895 0
3 0.6799999999991551 0
3 0.7333333333326146 0
3 0.7866666666660802 0
3 0.8399999999995775 0
3 0.8933333333330373 0
3 0.9466666666664969 0
2.949152542373491 1 0
2.898305084746983 1 0
2.847457627120474 1 0
2.796610169493702 1 0
2.745762711866469 1 0
2.694915254239208 1 0
2.644067796611963 1 0
2.593220338985156 1 0
2.542372881358647 1 0
2.491525423732018 1 0
2.44067796610481 1 0
2.389830508477549 1 0
2.338983050850287 1 0
2.288135593223026 1 0
2.237288135595765 1 0
2.186440677968504 1 0
2.135593220341243 1 0
2.084745762713982 1 0
2.033898305086721 1 0
1.983050847459614 1 0
1.932203389832729 1 0
1.881355932205844 1 0
1.830508474578958 1 0
1.779661016952073 1 0
1.728813559325189 1 0
1.677966101698303 1 0
1.627118644071418 1 0
1.576271186444533 1 0
1.525423728817648 1 0
1.474576271190575 1 0
1.423728813563314 1 0
1.372881355936053 1 0
1.322033898308791 1 0
1.27118644068153 1 0
1.220338983054269 1 0
1.169491525427008 1 0
1.118644067799747 1 0
1.067796610172485 1 0
1.016949152545224 1 0
0.9661016949179628 1 0
0.9152542372907018 1 0
0.8644067796634407 1 0
0.8135593220361792 1 0
0.7627118644089181 1 0
0.7118644067816566 1 0
0.661016949154396 1 0
0.6101694915271345 1 0
0.5593220338998739 1 0
0.5084745762726124 1 0
0.4576271186453518 1 0
0.4067796610180903 1 0
0.3559322033908292 1 0
0.3050847457635677 1 0
0.2542372881363066 1 0
0.2033898305090456 1 0
0.1525423728817841 1 0
0.101694915254523 1 0
0.05084745762726151 1 0
0 0.9473684210524125 0
0 0.8947368421048248 0
0 0.8421052631576025 0
0 0.7894736842105994 0
0 0.7368421052635962 0
0 0.6842105263165927 0
0 0.6315789473695894 0
0 0.5789473684225861 0
0 0.5263157894755828 0
0 0.4736842105282874 0
0 0.4210526315806998 0
0 0.3684210526331123 0
0 0.3157894736855248 0
0 0.2631578947379374 0
0 0.21052631579035 0
0 0.1578947368427625 0
0 0.1052631578951749 0
0 0.05263157894758741 0
0.4374856279758046 0.955462795473483 0
0.625531914893563 0.2394317949808221 0
0.7891616249544176 0.9557759867023439 0
2.570562443351098 0.9559758769411787 0
2.364406779663917 0.9559648099769389 0
2.161016949154874 0.9559648099769389 0
1.957627118646171 0.9559648099772646 0
1.756856606547665 0.9560078743553572 0
1.553415402058453 0.9561420672712786 0
1.347457627122422 0.95627738856474 0
1.144067796613377 0.9563034567995272 0
0.04146670856173688 0.5498854761242812 0
0.9828861012149002 0.2442383967812095 0
2.465390809289578 0.2421522008426663 0
2.259572257543314 0.243586373321511 0
2.055319178697841 0.24363095694403 0
1.851066099915384 0.2436741865527954 0
1.646810778591931 0.2437170671454607 0
1.442550972205278 0.2437587738062726 0
1.238275543433999 0.2442249255777628 0
0.5808319854219957 0.2417757800606361 0
0.6039807146029165 0.2785115072887754 0
2.951522810440164 0.5995349944823752 0
0.5591131416216563 0.2791940688436214 0
0.5817690965011905 0.3180386921514113 0
0.5363223429032008 0.3181181454258206 0
0.5590799034518541 0.3577335228902347 0
2.671507320584846 0.2416532643303031 0
0.5129751095268966 0.3576683284772433 0
0.5360042291720796 0.3976917483469583 0
0.5824744072527975 0.3977458985417416 0
0.5593202208963615 0.4382323507424581 0
0.6062221806132498 0.4382172989803606 0
0.5831398502988122 0.4790536480492864 0
0.630245509211025 0.4792447281197085 0
0.5373735766893435 0.4817209888486334 0
0.2780994584865757 0.9660670791366374 0
0.9407829849899363 0.9559852449915113 0
0.6069171020766708 0.5203953730037822 0
0.6544691944766102 0.5205851219036783 0
2.724115018794794 0.9563165682871465 0
0.04341732373162228 0.2894490564426765 0
0.6304562046384772 0.5622881188475496 0
0.6786259291441818 0.5621981517123112 0
0.03938236249337418 0.7091098825652095 0
0.2999999999993055 0.04723774929726795 0
0.7024556039582556 0.5200372393771872 0
0.726826368578132 0.562505099575485 0
0.6545296629344706 0.6041261864689124 0
0.6061411599039735 0.6041581669226386 0
2.954333097254252 0.4393531299125908 0
0.7512905139641642 0.5199435586712576 0
0.7757938242112172 0.5624873891767795 0
0.4902278874550028 0.3174350849704655 0
0.4661669324669476 0.3576870257641042 0
0.8003371868304782 0.5195844107098163 0
0.8251782158071723 0.5621174250913318 0
0.6300572939290072 0.6460588488486728 0
0.581677101888915 0.6462390077748084 0
0.7994632498085218 0.6067218912904607 0
0.850068894442807 0.6047738158182728 0
0.8747482025846163 0.5617915498272615 0
0.8998102571129438 0.6045430073239006 0
0.924588798996443 0.5614360364847856 0
0.9497125983499418 0.6046345614192383 0
0.9744389394813738 0.5613114208485291 0
0.9997656958801404 0.604758732930365 0
1.024028015453996 0.5597386087889248 0
1.050046148741532 0.6042836632406788 0
1.075213347289947 0.5607219500906248 0
1.100604808237692 0.6043040651294929 0
1.125727120818654 0.5598592244124957 0
1.151165990249003 0.6040638744783449 0
1.176319565514503 0.5595216793632644 0
1.201793840633129 0.6038781229769293 0
1.226960854257978 0.5600604284234054 0
1.252470704079807 0.6038664424080111 0
1.277198987313166 0.55874807111347 0
1.303148970446812 0.6035341865995129 0
1.328130525802366 0.5586520846649797 0
1.353966012915828 0.6034054551655909 0
1.379205474149696 0.558835304845746 0
1.404820923589671 0.6032503772964327 0
1.430092956912838 0.5587079795953892 0
1.455686300628245 0.6030926920218221 0
1.480963489515269 0.5580480170404921 0
1.506562983627252 0.6028436706904448 0
1.531847734917255 0.5577680566445021 0
1.557453558526421 0.6026435181305781 0
1.582745756648754 0.5575726351194972 0
1.608358176126191 0.6024617369905624 0
1.633656322435163 0.5573842056888257 0
1.659277805706528 0.6022873884346892 0
1.684577462424181 0.5572075399874397 0
1.710203504633815 0.6021111834258887 0
1.735506494091908 0.5570246051384745 0
1.761134606493805 0.6019307913070558 0
1.786441498808711 0.5568475628142857 0
1.812072359676459 0.6017522495250318 0
1.837381834584306 0.5566653603575672 0
1.863017119880456 0.601574020443024 0
1.888326681794851 0.5564884669211013 0
1.913963858781491 0.601395113412113 0
1.939274704592935 0.5563067813822595 0
1.964908406083961 0.6012129143420911 0
1.990224566339525 0.5561292537946573 0
2.015859329864652 0.601032757987411 0
2.041177190815608 0.5559477304122714 0
2.066818109147928 0.600855564813206 0
2.09213259478423 0.5557710179709322 0
2.117774443326183 0.6006760179252703 0
2.143088896138059 0.5555900146741853 0
2.168729305797513 0.6004921726308964 0
2.194045774061603 0.5554125217101814 0
2.219686577151481 0.6003111949874665 0
2.245003702950199 0.5552312296013228 0
2.270641766736839 0.6001298880828497 0
2.295962173634055 0.5550546947866846 0
2.321601310982481 0.599950595338254 0
2.346923922781879 0.5548708301001631 0
2.372568004594504 0.5997713467128002 0
2.397895756972162 0.5547000681173012 0
2.423546697517365 0.5996004731097838 0
2.448884659670238 0.5545095609010697 0
2.474538141419978 0.5994220729206983 0
2.499902931415869 0.5543494429014709 0
2.525546234724433 0.5993228147833797 0
2.550973655834774 0.5541346321759457 0
2.576685338327378 0.5992395038842441 0
2.602182482443039 0.5540180644105763 0
2.958944511946492 0.7598964409357507 0
2.628014314012249 0.5990918128353608 0
0.4429170888396284 0.3159793431387367 0
0.4184631156771032 0.357715436029677 0
0.3946070818022522 0.3157219358498637 0
0.3697276561976696 0.3576135465858128 0
2.449044355814981 0.643990885448769 0
2.24531935830005 0.6444881680698032 0
1.024857369602972 0.6487487015028032 0
2.041498164113345 0.6452136474256573 0
1.837701628146142 0.6459229900926835 0
0.3455853078837237 0.3150377509381005 0
0.3204780172155196 0.3574251905568473 0
0.3449438693484468 0.4002519798591844 0
1.633970683060678 0.6466170330762969 0
1.227333380683899 0.6479317947648683 0
1.430444030483603 0.6473399689389928 0
0.875196942148915 0.6483605753517908 0
0.6057010339261732 0.6883083412871458 0
0.5571396249147901 0.6885103796531055 0
2.653543252321963 0.5527758280498023 0
1.099471497978971 0.5148848291986879 0
2.602427017093663 0.6438096025956825 0
2.653851606946175 0.6437140715169269 0
1.353138019780104 0.5138574114565649 0
1.556762689169365 0.5115839513085039 0
1.760509743411542 0.5109012431757174 0
1.964341412665395 0.510388685431229 0
0.2953909602266698 0.4001745965167012 0
[...]
    <PointData>
      <DataArray type="Float64" NumberOfComponents="3" Name="Velocity" format="ascii">
3.00000005594493 0 0
0 0 0
0 0 0
3.160206195633845 0 0
3.163069849359053 0 0
2.999999999999995 0 0
2.999999953265294 0 0
3.000000167622725 0 0
2.999999442919056 0 0
3.000000301425525 0 0
3.000007713556151 0 0
2.999915824590691 0 0
3.000894414208023 0 0
2.992512049229067 0 0
3.053620200292528 0 0
2.785664982542138 0 0
0 0.002820052140190249 0
0 0.00769687062350562 0
0 -0.006566926796230181 0
0 0.04600646987056551 0
2.393286899501622 0 0
2.950458851207494 0 0
3.009197493089429 0 0
2.999389947569587 0 0
2.99979700769958 0 0
3.000111681498562 0 0
2.999962473937157 0 0
3.000009798070517 0 0
2.999997481530234 0 0
3.000000659013868 0 0
2.999999828021698 0 0
3.000000046975416 0 0
2.999999985861617 0 0
3.000000003716369 0 0
2.999999999276135 0 0
3.000000000082974 0 0
3.000000000006222 0 0
2.999999999993185 0 0
3.000000000002365 0 0
2.999999999999432 0 0
3.000000000000099 0 0
2.999999999999989 0 0
2.999999999999999 0 0
3 0 0
3 0 0
3.000000000000001 0 0
2.999999999999991 0 0
3.00000000000001 0 0
3.000000000000139 0 0
2.999999999999059 0 0
3.000000000001934 0 0
3.00000000001084 0 0
2.999999999891413 0 0
3.000000000416839 0 0
2.999999999614057 0 0
2.999999996658018 0 0
3.000000020627351 0 0
2.999999927553017 0 0
3.000000190273282 0 0
2.999999832789137 0 0
2.999997714030605 0 0
3.000021776295613 0 0
2.999879358745493 0 0
3.000484492342452 0 0
2.997985047376367 0 0
3.004659079416074 0 0
3.163798189283295 0.0006315296290699105 0
3.154245724341484 -0.0003981543490959176 0
3.155699573372313 7.134442164466993e-05 0
3.155433275294092 -4.845596033648485e-05 0
3.15715580313545 -0.0002178307977995339 0
3.15855857156383 -7.018239828502886e-05 0
3.157079999065663 0.0004853491173075899 0
3.156423020485335 -0.0005457792968600855 0
3.159963621397874 1.576379193804675e-05 0
3.158223152622019 8.416568308748873e-05 0
3.15894796685548 2.477036450342071e-05 0
3.155342215589747 0.0004980956902234885 0
3.154967359261403 -0.0005441959017852666 0
3.167688114357435 -0.0001758871626129609 0
3.002182013666703 0 0
2.997998805014462 0 0
3.000395040614717 0 0
2.999926354961798 0 0
3.000017882388031 0 0
2.999996282484892 0 0
3.000000407113223 0 0
3.000000020289179 0 0
2.999999973876614 0 0
3.000000006611143 0 0
2.999999999773967 0 0
2.9999999992332 0 0
3.000000000284948 0 0
2.999999999958251 0 0
2.999999999998057 0 0
3.000000000002256 0 0
2.999999999999596 0 0
2.999999999999967 0 0
3.000000000000036 0 0
2.999999999999991 0 0
3 0 0
3.000000000000002 0 0
3 0 0
3 0 0
3 0 0
3 0 0
3 0 0
3 0 0
3 0 0
3 0 0
2.999999999999997 0 0
3.000000000000005 0 0
3.000000000000009 0 0
2.999999999999958 0 0
3.000000000000007 0 0
3.000000000000172 0 0
2.999999999999871 0 0
2.999999999999359 0 0
3.000000000000592 0 0
3.00000000000216 0 0
2.999999999998999 0 0
2.999999999993224 0 0
2.999999999996748 0 0
3.000000000011597 0 0
3.000000000020862 0 0
3.000000000016649 0 0
3.000000000010277 0 0
3.000000000014224 0 0
3.000000000012119 0 0
3.00000000000007 0 0
2.99999999999815 0 0
3.000000000000802 0 0
2.999999999999803 0 0
3.000000000000281 0 0
2.999999999999987 0 0
2.999999999999964 0 0
3.000000000000041 0 0
2.999999999999997 0 0
3.000000000000021 0 0
2.999999999999962 0 0
3.000000000000945 0 0
2.999999999989923 0 0
3.000000000024537 0 0
2.999999999873259 0 0
3.000000000264998 0 0
3.00000000000679 0 0
2.999999999766034 0 0
3.000000000724983 0 0
3.000000004035638 0 0
3.000000004331842 0 0
2.99999999403803 0 0
2.999999977176229 0 0
2.999999939944822 0 0
2.999999914161061 0 0
2.999999939985286 0 0
2.99999995285569 0 0
3.000000000004046 9.993417195072858e-12 0
2.395987028079345 0.1765452526308282 0
2.999999999993042 1.154946545971022e-11 0
2.999999846298599 -8.977719589798634e-09 0
2.999999999679492 -8.491734924944555e-12 0
2.999999999999896 5.452965995134548e-14 0
3.000000000000004 -4.694924938015776e-17 0
3 9.463980545444991e-17 0
3 -1.878239750272053e-17 0
2.999999999999979 9.127971885703798e-15 0
2.999999999999753 -2.488536830915587e-13 0
3.000000000125626 -9.13749685053194e-11 0
3.000005655723073 -1.619595576858014e-07 0
2.999999983723285 7.837247737433165e-10 0
3.000000000029231 -7.112564125854827e-13 0
2.999999999999912 -7.329650518363117e-16 0
3.000000000000001 -2.569248231525804e-17 0
3.000000000000112 -2.112739622053742e-15 0
2.999999999897057 1.817683537790623e-12 0
2.999999999937802 -9.555172055834926e-11 0
2.582733705275085 0.1473149857912811 0
2.926811856851085 0.06177245874030316 0
3.008531903103231 -3.139199953966082e-05 0
2.985018450371774 0.01792392505702281 0
3.007198841531068 -0.002159490401044929 0
3.003361872449103 -0.002345338565374622 0
2.999953717823462 -0.0006498555501776388 0
2.999996587427267 1.151461409754586e-07 0
2.999510256760275 0.0002663453677618544 0
2.999886661902299 0.00017927703106522 0
2.999633315658498 0.0003872755730096317 0
3.00006125161012 -2.854891179680098e-05 0
3.000061577424533 3.848893730740112e-05 0
2.99999898936902 -3.439125733184847e-05 0
3.00000239967046 -4.840581820367169e-05 0
2.999988931250815 1.384996048700869e-06 0
2.999999999999694 6.040967962924923e-13 0
2.999999999997227 -4.745474771250569e-12 0
2.999995613302303 1.565625638662679e-05 0
2.999996957182421 1.420962969809506e-05 0
3.000012700413127 -2.793747466731243e-07 0
2.999999996225697 1.686865403208737e-09 0
3.00000148518662 -2.657352849682585e-06 0
3.00000116683261 -3.02766656681952e-06 0
3.000000000012766 4.763620775591983e-12 0
2.999877442989024 3.814898962426838e-06 0
3.000001382603574 8.552928591402928e-06 0
2.999999811140848 -2.321545782122399e-06 0
2.999999561343722 1.199538002875435e-07 0
2.999999654334502 -1.183339228942358e-07 0
3.014329287862078 -2.288181709192898e-05 0
3.000004442207375 5.810845970420746e-07 0
2.999998895090454 -2.209837385690028e-07 0
2.999258173770563 0.0001607233329021594 0
3.00001073989542 4.073348697641325e-05 0
3.000001908511411 -3.084129746640522e-06 0
2.999999552139101 6.816510617627462e-07 0
3.00000006592636 2.615362096121441e-07 0
3.000000067768652 1.780158050731849e-07 0
3.000000271141816 9.144072155111242e-08 0
3.000000088342631 -1.619028169757219e-07 0
3.00000039357462 1.649042669240661e-07 0
2.999999906093335 -5.545831426899389e-08 0
3.000000239779665 -2.02017083490742e-07 0
2.999999948570559 5.335164182860489e-08 0
2.999999900526891 -3.316794068405676e-08 0
3.000000026498753 8.739526567287997e-09 0
2.999999931277649 5.745795888754014e-08 0
3.000000016148195 -1.685439752370231e-08 0
3.000000037331361 -7.197124559138723e-09 0
2.999999989420691 3.185776113228332e-09 0
3.000000005617032 -7.400589025558799e-09 0
2.999999999667528 1.599148291168707e-09 0
2.999999991288711 3.794794865651785e-09 0
3.000000001989922 -1.087603491469344e-09 0
3.000000003192183 -8.664707388157009e-10 0
2.999999999121041 3.036661480775975e-10 0
2.99999999944327 6.806802090399153e-11 0
3.000000000182412 -3.577729813038585e-11 0
2.999999999992518 2.799198826814972e-11 0
3.000000000006956 -1.061466810673664e-11 0
3.000000000037899 -1.351073889701092e-11 0
2.99999999997837 7.671710164937804e-12 0
2.999999999987935 2.944333639383034e-12 0
3.000000000009786 -2.609894610861119e-12 0
3.000000000001347 -1.887863671494901e-13 0
2.999999999997149 6.190540811667935e-13 0
3.00000000000054 -1.345438234567786e-13 0
3.000000000000582 -1.01710237591985e-13 0
2.999999999999613 7.221234506927746e-14 0
2.999999999999934 6.856660114697296e-15 0
3.000000000000145 -2.32666373745658e-14 0
2.999999999999992 2.86437274849879e-15 0
2.999999999999958 5.786739243192363e-15 0
3.000000000000008 -1.390597820406523e-15 0
3.000000000000008 -1.198157018839751e-15 0
2.999999999999997 4.811203759502374e-16 0
2.999999999999997 1.876990560707113e-16 0
3.000000000000001 -1.105846521875023e-16 0
3 -3.598644540960658e-17 0
3.000000000000001 -7.218005190506862e-17 0
3 -2.625039176529479e-17 0
2.999999999999997 6.164937649654202e-17 0
3.000000000000004 -4.079227504874057e-17 0
3 -1.948159752961996e-16 0
2.999999999999989 -9.40147100118794e-17 0
3.000000000000021 6.860079305740603e-16 0
3.000000000000011 2.97038510330927e-16 0
2.999999999999905 -8.710763642857116e-16 0
3.000000000000135 4.279393305234805e-16 0
3.000000000000108 -2.750483038167432e-16 0
2.999999999999206 -7.617051095363015e-15 0
3.000000000001361 2.884989208772564e-15 0
3.000000000000925 5.575009081218348e-14 0
2.999999999990816 -1.065189170259129e-14 0
3.000000000013225 -2.468410260934108e-13 0
3.000000000019535 1.519741568753746e-13 0
2.999999999904973 3.512529597854629e-13 0
3.000000000090718 -1.45897595649297e-12 0
3.000000000257823 4.692483893132284e-12 0
2.999999999083854 7.796444205714925e-12 0
3.000000000344081 -4.772184967587284e-11 0
3.000000003653447 -2.818105910800052e-11 0
2.999999994560137 2.623112854640001e-10 0
2.999999989621328 1.16951256591273e-10 0
3.000000025323303 -1.115140350612379e-09 0
3.000000028285484 -3.341720634142332e-10 0
2.999999907899775 2.63326608484209e-09 0
2.999999901101245 1.282129780592176e-09 0
3.00000034887372 -2.270056549106456e-09 0
3.021303488579472 1.137769051001497e-05 0
3.000000477816178 -4.898324301638439e-09 0
2.999828562891688 0.0001159616468460653 0
3.000076727450539 -3.825152404512974e-05 0
3.000130446519237 -3.68061589245867e-05 0
2.999973466648434 5.94196540974134e-06 0
2.999999995129236 -1.741303358435907e-10 0
3.000000000011745 -2.800084533577635e-14 0
2.999999991559388 -4.860398654603977e-10 0
3.000000000000007 -2.975061862778851e-15 0
3 2.003495208785896e-17 0
2.999974035997719 3.371770740964403e-06 0
3.000000245204581 1.144721725874192e-06 0
3.000003739442945 -3.385858869954824e-07 0
3.000000000000088 -1.58123683610899e-14 0
2.999999999691483 2.427174949948965e-10 0
3.000000000006029 -2.421617377772987e-12 0
2.999999982634194 4.76966742053717e-08 0
2.999999990311215 -1.164631542246571e-07 0
2.999999984851673 -5.904696115802829e-08 0
2.99999843804951 -1.182953421942207e-08 0
2.999999979366443 2.433441732221293e-08 0
3.000000349396739 -2.821315051254333e-09 0
2.999998413988818 2.690918027606932e-08 0
3.000000000090556 -1.198573005665459e-11 0
3.000000000002022 -2.960142819570123e-13 0
3 2.881982083524991e-17 0
3.000000000000001 3.24570366876655e-16 0
3.000001204542472 -6.762312262088991e-07 0
2.999999727068275 -1.588239652849997e-07 0
3.000000000001201 -2.968882037228109e-15 0
2.999999999061199 1.640559066989061e-11 0
2.999999879446956 5.368114940255993e-09 0
2.999992391690941 1.28905494356087e-05 0
3.000000328919561 1.194297690817653e-07 0
3.000000714349558 6.690289673360929e-08 0
2.999996609929942 -2.955479892816805e-07 0
3.000000003010792 3.43625158310655e-08 0
3.000000002952474 3.528578317024486e-08 0
3.00000000403931 1.387651713276541e-08 0
2.999999987378536 2.150552592910889e-08 0
3.000000002512494 -7.520069943569573e-09 0
2.999999992224981 3.134381973451239e-08 0
3.000000001341655 -5.902045508255198e-09 0
3.00000000210777 -2.901653273834776e-09 0
2.999999999024005 1.973464314119366e-09 0
3.000000004112299 -5.80851972037342e-09 0
2.99999999944579 6.704904407090921e-10 0
2.999999998184959 1.878692403876288e-09 0
2.038319107083586 -0.001242209489745571 0
2.999760835984788 8.833901376689494e-05 0
3.00000000050779 -5.073427357631339e-10 0
3.000002645881596 1.018775624461649e-07 0
3.000144840495871 1.430590619966717e-05 0
2.999999479734143 2.451967646362721e-07 0
2.999003656260111 0.0001430707275756919 0
2.999999999643027 2.495558523817509e-10 0
2.999997966433657 6.009516738076868e-09 0
3.000000509175279 -5.469578728350533e-09 0
3.000006282529897 1.772974100261524e-08 0
3.000014568240279 5.374964207486099e-07 0
3.010518474117256 0.001503710360314097 0
2.999999998918743 -8.993869315215225e-09 0
2.999994724245759 3.434896623797893e-08 0
2.999999994104908 6.882469414101496e-10 0
3.000000048262489 -4.587477704672259e-09 0
2.999979174760527 2.262192735990509e-06 0
3.000005433545073 -6.534882632536017e-07 0
3.000000000002618 1.806881563521966e-13 0
2.999999999962504 -3.962021069505387e-11 0
2.999999999999154 -1.425742649001555e-14 0
3.000000000000002 -1.052811151551506e-16 0
3.000000000000002 -1.454392058066998e-16 0
3.000000000001377 -3.410236553211767e-13 0
3.000000000001282 -5.986569105615906e-14 0
3.000000000000002 2.360177466767915e-16 0
2.999999999049663 2.140706069333018e-11 0
2.999999999996865 2.442387473790193e-14 0
3.000000000000013 -2.034281116851966e-17 0
3.000000154043063 1.915899836439747e-08 0
2.999999999059978 2.383191405401242e-11 0
2.999999999938879 1.821708440773538e-11 0
2.999999999999937 3.871424813307356e-15 0
3.000000000000002 -2.476509921315628e-15 0
2.999999989008489 -3.814693279174774e-10 0
3.000000000000733 1.265163344043206e-12 0
3.00000000000009 1.30547623005537e-14 0
3.000000000027037 2.664975736791919e-13 0
3 -8.657226344060217e-18 0
3.000000000000001 -1.939137043640701e-17 0
3.000000000000164 -7.976092851409783e-14 0
3.000000002885516 -1.408232344170857e-09 0
2.999999999999928 5.525073995798151e-16 0
3.000000000000001 3.994493412030474e-17 0
3.000000000000096 -1.043172766754981e-14 0
3.000000000018737 -3.508155564094743e-12 0
3.000000000272523 -5.290611700847861e-12 0
3.000000000008186 7.715383482885593e-13 0
2.999999988689946 2.699295812482565e-09 0
2.999999793623127 1.023510844387781e-08 0
2.999999979358944 2.802475069310253e-08 0
3.000087198421465 -3.149322756263658e-06 0
2.997895875639871 0.0001453963090481322 0
2.999999992205099 7.035746697313327e-11 0
2.999999135950034 2.576963333469599e-07 0
3.000000000287574 -5.881835350787468e-10 0
2.999534582186494 0.0004611607956194342 0
3.000000240423541 -6.87073782943716e-08 0
2.999999999893846 9.725319646753446e-11 0
3.000000004588503 -3.818266541227416e-09 0
2.999999996851829 2.01722502732157e-09 0
2.99998999986376 -1.068262635048833e-08 0
3.000000664771174 -6.371310497938003e-08 0
2.999999860108319 1.065467210537909e-08 0
2.999999999595159 2.464673292654668e-09 0
2.999999999981487 -3.873334201330612e-11 0
3.000000037353765 -1.346165404683145e-07 0
2.999931241242276 1.716290221724316e-06 0
2.999999999914768 6.945029671833377e-11 0
3.00000393215632 -1.877130802161595e-06 0
3.000005620291534 -2.158372937054327e-06 0
2.999999706610708 1.992081782282734e-07 0
2.999998144114686 2.821045302707748e-07 0
3.000013679669734 -5.817160173185212e-07 0
2.999932334305564 -1.651537179213178e-06 0
3.015133187641436 0.000175758757729756 0
3.00572660340223 -0.000178647069142042 0
2.999999184371552 3.92356250738007e-07 0
3.000000000046879 -3.516029324782932e-11 0
3.000004700514162 2.245091540418916e-06 0
2.999979803957219 -6.675724105643708e-06 0
2.999987034954275 1.223239717669642e-05 0
2.999975305214296 1.326539838808369e-06 0
3.000000133696055 6.625116096900134e-08 0
2.959507100914058 0.01287078710475684 0
3.00000161987558 -1.500424707762771e-06 0
3.000000253129507 -4.982729150269847e-08 0
2.999999955833029 4.636089707625493e-09 0
2.999999934803109 1.943336818005485e-08 0
2.999999474387276 7.807692584049179e-08 0
3.000000000004546 -4.425224961111484e-13 0
3.000046462145645 -4.865060291697227e-05 0
2.999958663408556 8.021982566124931e-06 0
3.000098486524289 1.115555990000589e-06 0
3.000040772804636 -1.032889045912118e-05 0
2.999958694028075 3.265670438611993e-08 0
2.999999999990789 5.751988586968043e-12 0
2.999999999937396 3.42130930885265e-11 0
3.000000300753229 -7.438364267487412e-09 0
2.999999930781908 3.294902450324798e-09 0
3.000000030377029 -1.788340364167482e-09 0
3.000000016569086 -1.115134085671703e-09 0
2.999999991321572 3.917211113280863e-10 0
2.999999997266882 2.649208954360001e-10 0
3.000000002980597 -1.105744364219554e-10 0
2.999999999763686 -3.549565410153254e-11 0
2.999999999293419 2.913227789635157e-11 0
3.000000000262781 -2.327898693340709e-12 0
3.000000000063746 -5.117923705834994e-12 0
2.999999999935027 2.780103708762843e-12 0
3.000000000015568 2.69362657349826e-13 0
3.000000000004945 -8.87016594390164e-13 0
2.99999999999315 1.971132209027462e-13 0
3.000000000001791 1.798993403801391e-13 0
3.000000000001049 -1.010690119179341e-13 0
2.999999999999282 -1.814214327131209e-14 0
3.000000000000029 3.272636408090412e-14 0
3.000000000000111 -4.214949951743941e-15 0
2.999999999999952 -8.424570827227529e-15 0
3.000000000000002 3.379350849569487e-15 0
3.000000000000008 1.65500690100805e-15 0
2.999999999999995 -1.392603408182135e-15 0
3.000000000000001 -1.959830965151344e-16 0
3 3.465081743539891e-16 0
3 -1.243018427339399e-16 0
3.000000000000002 -2.332780619090807e-18 0
3 3.777138519701849e-17 0
3 4.978442333983472e-17 0
3 4.137929693731678e-17 0
3 1.655311601287256e-17 0
3.000000000000002 -2.999802919976745e-16 0
3.000000000000002 -3.902116620195261e-16 0
2.999999999999995 1.112965836993158e-15 0
2.999999999999997 8.668119470495774e-16 0
3.000000000000012 -3.660525622540309e-15 0
3.000000000000005 -1.697801762665678e-15 0
2.999999999999976 8.93957211348729e-15 0
3.000000000000001 3.161844079500577e-16 0
3.000000000000025 -1.214132948402986e-14 0
2.999999999999973 1.012083597746447e-14 0
3.000000000000061 -1.577838419553585e-14 0
3.000000000000076 -4.214477877109659e-14 0
2.999999999999653 1.540223730539662e-13 0
2.999999999999926 8.163957355280497e-14 0
3.000000000000708 -4.698656416185003e-13 0
2.999999999999771 1.2949881113294e-14 0
3.000000000000016 5.706240370841737e-13 0
3.000000000000959 -5.823072910369695e-13 0
2.99999999999587 1.388463207060802e-12 0
2.999999999999242 1.577714408644985e-12 0
3.000000000009427 -8.129324034116586e-12 0
2.999999999996187 -3.805919438408546e-13 0
3.000000000003753 1.279371584961644e-11 0
3.000000000010214 -8.219351830298744e-12 0
2.999999999944082 1.905720795955984e-11 0
3.000000000004718 1.692550236727512e-11 0
3.000000000056302 -1.05029516016856e-10 0
2.999999999954133 1.371393228339698e-11 0
3.00000000017117 7.298713906751901e-11 0
3.000000000007386 -9.047008813227439e-11 0
2.999999999708625 3.680308751435639e-10 0
3.000000000155424 2.611688075412269e-11 0
2.999999999504144 -6.273273332983098e-10 0
2.99999999999496 3.298342537205075e-10 0
3.000000000768497 -1.050958688948836e-09 0
2.999999999517291 -1.481339296140136e-10 0
3.000000001777594 2.154192492120141e-09 0
2.999999999775294 -1.012112944546145e-09 0
2.999999998994697 3.459701452997126e-09 0
3.000000000961628 -1.860191386923603e-10 0
2.999978730133279 -7.259447124385836e-07 0
3.000026990284357 8.73434955662489e-06 0
3.000000011571227 -6.863111088123842e-09 0
3.000000000232796 -5.858842692189462e-10 0
3.00002787058841 -3.802990612866098e-06 0
2.999897959058248 1.619224843042643e-05 0
3.000301485918635 -9.526743776444263e-06 0
2.99999999546879 -2.32539837122156e-09 0
3.000000001471852 1.791615176070381e-09 0
3.000000008701673 -7.631683958925841e-09 0
3.000000688054132 -1.049231361704404e-07 0
3.000342139962779 -4.20386928915741e-07 0
3.00002729012103 1.157442783710155e-05 0
3.000356144661891 -3.420190636082864e-05 0
3.000300342303254 3.934896787221802e-06 0
2.99993173498444 -1.792139356712353e-06 0
2.999978751923008 -3.136924034648075e-06 0
2.999992631312316 6.654439503379165e-07 0
2.999917944523384 1.128999891431528e-06 0
3.000014163516878 8.474363229655402e-07 0
2.999962713174471 2.083336440127126e-07 0
3.000007491218448 -1.511924803603468e-07 0
3.000159893992706 -2.635368991704881e-06 0
2.999997664457347 -3.134049528473432e-07 0
2.999998315374123 5.272298451704647e-08 0
2.999999583869584 3.692748494549012e-07 0
2.999999651734863 9.079856281258333e-08 0
3.000000008264258 -5.300437882503383e-10 0
3.000000000145534 1.936605785373719e-10 0
2.999999679733382 6.662068570642997e-09 0
3.000000000000036 2.531331143197451e-14 0
3.042619102650829 -0.003698557659340038 0
3.000000485636249 6.825920441026983e-08 0
3.000000388085183 -3.503582261387506e-09 0
2.999999914425341 -1.405007620785308e-08 0
2.999999907694013 -1.750837765592697e-09 0
3.000000014089885 2.706287682136559e-09 0
3.000000024276959 7.291156696168432e-10 0
2.99999999475977 -5.803479152760055e-10 0
2.999999994399795 -1.948007537186423e-10 0
3.000000002643421 1.066976300767947e-10 0
3.000000000475117 3.734513689792661e-11 0
2.999999999178222 -1.77828712232998e-11 0