<?xml version="1.0"?>
<VTKFile type="UnstructuredGrid">
  <UnstructuredGrid>
  <Piece NumberOfPoints="1224"  NumberOfCells="2290">
    <Points>
      <DataArray type="Float64" NumberOfComponents="3" format="ascii">
0 0 0
0.6 0 0
0.6 0.2 0
3 0.2 0
3 1 0
0 1 0
0.05454545454535233 0 0
0.1090909090906768 0 0
0.1636363636359771 0 0
0.2181818181812728 0 0
0.2727272727265793 0 0
0.3272727272720317 0 0
0.3818181818176247 0 0
0.4363636363632168 0 0
0.4909090909088285 0 0
0.5454545454544089 0 0
0.6 0.03999999999991203 0
0.6 0.07999999999979179 0
0.6 0.1199999999997886 0
0.6 0.1599999999998948 0
0.6510638297871261 0.2 0
0.7021276595742618 0.2 0
0.7531914893613819 0.2 0
0.8042553191485237 0.2 0
0.8553191489356438 0.2 0
0.9063829787228289 0.2 0
0.957446808509926 0.2 0
1.008510638297009 0.2 0
1.059574468084092 0.2 0
1.110638297871174 0.2 0
1.161702127658257 0.2 0
1.21276595744534 0.2 0
1.263829787232422 0.2 0
1.314893617019505 0.2 0
1.365957446806588 0.2 0
1.417021276593671 0.2 0
1.468085106380754 0.2 0
1.519148936167923 0.2 0
1.570212765955006 0.2 0
1.621276595742088 0.2 0
1.672340425529171 0.2 0
1.723404255316254 0.2 0
1.774468085103337 0.2 0
1.825531914890624 0.2 0
1.876595744677951 0.2 0
1.927659574465349 0.2 0
1.978723404252714 0.2 0
2.029787234040074 0.2 0
2.080851063827477 0.2 0
2.131914893614798 0.2 0
2.182978723402204 0.2 0
2.234042553189523 0.2 0
2.285106382976928 0.2 0
2.336170212764247 0.2 0
2.387234042551653 0.2 0
2.438297872338975 0.2 0
2.489361702126377 0.2 0
2.540425531913739 0.2 0
2.591489361701102 0.2 0
2.642553191488421 0.2 0
2.693617021275827 0.2 0
2.744680851063146 0.2 0
2.795744680850551 0.2 0
2.84680851063787 0.2 0
2.897872340425276 0.2 0
2.948936170212618 0.2 0
3 0.2533333333332341 0
3 0.3066666666664725 0
3 0.3599999999996274 0
3 0.413333333332804 0
3 0.4666666666659806 0
3 0.5199999999991571 0
3 0.5733333333323336 0
3 0.6266666666656895 0
3 0.6799999999991551 0
3 0.7333333333326146 0
3 0.7866666666660802 0
3 0.8399999999995775 0
3 0.8933333333330373 0
3 0.9466666666664969 0
2.949152542373491 1 0
2.898305084746983 1 0
2.847457627120474 1 0
2.796610169493702 1 0
2.745762711866469 1 0
2.694915254239208 1 0
2.644067796611963 1 0
2.593220338985156 1 0
2.542372881358647 1 0
2.491525423732018 1 0
2.44067796610481 1 0
2.389830508477549 1 0
2.338983050850287 1 0
2.288135593223026 1 0
2.237288135595765 1 0
2.186440677968504 1 0
2.135593220341243 1 0
2.084745762713982 1 0
2.033898305086721 1 0
1.983050847459614 1 0
1.932203389832729 1 0
1.881355932205844 1 0
1.830508474578958 1 0
1.779661016952073 1 0
1.728813559325189 1 0
1.677966101698303 1 0
1.627118644071418 1 0
1.576271186444533 1 0
1.525423728817648 1 0
1.474576271190575 1 0
1.423728813563314 1 0
1.372881355936053 1 0
1.322033898308791 1 0
1.27118644068153 1 0
1.220338983054269 1 0
1.169491525427008 1 0
1.118644067799747 1 0
1.067796610172485 1 0
1.016949152545224 1 0
0.9661016949179628 1 0
0.9152542372907018 1 0
0.8644067796634407 1 0
0.8135593220361792 1 0
0.7627118644089181 1 0
0.7118644067816566 1 0
0.661016949154396 1 0
0.6101694915271345 1 0
0.5593220338998739 1 0
0.5084745762726124 1 0
0.4576271186453518 1 0
0.4067796610180903 1 0
0.3559322033908292 1 0
0.3050847457635677 1 0
0.2542372881363066 1 0
0.2033898305090456 1 0
0.1525423728817841 1 0
0.101694915254523 1 0
0.05084745762726151 1 0
0 0.9473684210524125 0
0 0.8947368421048248 0
0 0.8421052631576025 0
0 0.7894736842105994 0
0 0.7368421052635962 0
0 0.6842105263165927 0
0 0.6315789473695894 0
0 0.5789473684225861 0
0 0.5263157894755828 0
0 0.4736842105282874 0
0 0.4210526315806998 0
0 0.3684210526331123 0
0 0.3157894736855248 0
0 0.2631578947379374 0
0 0.21052631579035 0
0 0.1578947368427625 0
0 0.1052631578951749 0
0 0.05263157894758741 0
0.4374856279758046 0.955462795473483 0
0.625531914893563 0.2394317949808221 0
0.7891616249544176 0.9557759867023439 0
2.570562443351098 0.9559758769411787 0
2.364406779663917 0.9559648099769389 0
2.161016949154874 0.9559648099769389 0
1.957627118646171 0.9559648099772646 0
1.756856606547665 0.9560078743553572 0
1.553415402058453 0.9561420672712786 0
1.347457627122422 0.95627738856474 0
1.144067796613377 0.9563034567995272 0
0.04146670856173688 0.5498854761242812 0
0.9828861012149002 0.2442383967812095 0
2.465390809289578 0.2421522008426663 0
2.259572257543314 0.243586373321511 0
2.055319178697841 0.24363095694403 0
1.851066099915384 0.2436741865527954 0
1.646810778591931 0.2437170671454607 0
1.442550972205278 0.2437587738062726 0
1.238275543433999 0.2442249255777628 0
0.5808319854219957 0.2417757800606361 0
0.6039807146029165 0.2785115072887754 0
2.951522810440164 0.5995349944823752 0
0.5591131416216563 0.2791940688436214 0
0.5817690965011905 0.3180386921514113 0
0.5363223429032008 0.3181181454258206 0
0.5590799034518541 0.3577335228902347 0
2.671507320584846 0.2416532643303031 0
0.5129751095268966 0.3576683284772433 0
0.5360042291720796 0.3976917483469583 0
0.5824744072527975 0.3977458985417416 0
0.5593202208963615 0.4382323507424581 0
0.6062221806132498 0.4382172989803606 0
0.5831398502988122 0.4790536480492864 0
0.630245509211025 0.4792447281197085 0
0.5373735766893435 0.4817209888486334 0
0.2780994584865757 0.9660670791366374 0
0.9407829849899363 0.9559852449915113 0
0.6069171020766708 0.5203953730037822 0
0.6544691944766102 0.5205851219036783 0
2.724115018794794 0.9563165682871465 0
0.04341732373162228 0.2894490564426765 0
0.6304562046384772 0.5622881188475496 0
0.6786259291441818 0.5621981517123112 0
0.03938236249337418 0.7091098825652095 0
0.2999999999993055 0.04723774929726795 0
0.7024556039582556 0.5200372393771872 0
0.726826368578132 0.562505099575485 0
0.6545296629344706 0.6041261864689124 0
0.6061411599039735 0.6041581669226386 0
2.954333097254252 0.4393531299125908 0
0.7512905139641642 0.5199435586712576 0
0.7757938242112172 0.5624873891767795 0
0.4902278874550028 0.3174350849704655 0
0.4661669324669476 0.3576870257641042 0
0.8003371868304782 0.5195844107098163 0
0.8251782158071723 0.5621174250913318 0
0.6300572939290072 0.6460588488486728 0
0.581677101888915 0.6462390077748084 0
0.7994632498085218 0.6067218912904607 0
0.850068894442807 0.6047738158182728 0
0.8747482025846163 0.5617915498272615 0
0.8998102571129438 0.6045430073239006 0
0.924588798996443 0.5614360364847856 0
0.9497125983499418 0.6046345614192383 0
0.9744389394813738 0.5613114208485291 0
0.9997656958801404 0.604758732930365 0
1.024028015453996 0.5597386087889248 0
1.050046148741532 0.6042836632406788 0
1.075213347289947 0.5607219500906248 0
1.100604808237692 0.6043040651294929 0
1.125727120818654 0.5598592244124957 0
1.151165990249003 0.6040638744783449 0
1.176319565514503 0.5595216793632644 0
1.201793840633129 0.6038781229769293 0
1.226960854257978 0.5600604284234054 0
1.252470704079807 0.6038664424080111 0
1.277198987313166 0.55874807111347 0
1.303148970446812 0.6035341865995129 0
1.328130525802366 0.5586520846649797 0
1.353966012915828 0.6034054551655909 0
1.379205474149696 0.558835304845746 0
1.404820923589671 0.6032503772964327 0
1.430092956912838 0.5587079795953892 0
1.455686300628245 0.6030926920218221 0
1.480963489515269 0.5580480170404921 0
1.506562983627252 0.6028436706904448 0
1.531847734917255 0.5577680566445021 0
1.557453558526421 0.6026435181305781 0
1.582745756648754 0.5575726351194972 0
1.608358176126191 0.6024617369905624 0
1.633656322435163 0.5573842056888257 0
1.659277805706528 0.6022873884346892 0
1.684577462424181 0.5572075399874397 0
1.710203504633815 0.6021111834258887 0
1.735506494091908 0.5570246051384745 0
1.761134606493805 0.6019307913070558 0
1.786441498808711 0.5568475628142857 0
1.812072359676459 0.6017522495250318 0
1.837381834584306 0.5566653603575672 0
1.863017119880456 0.601574020443024 0
1.888326681794851 0.5564884669211013 0
1.913963858781491 0.601395113412113 0
1.939274704592935 0.5563067813822595 0
1.964908406083961 0.6012129143420911 0
1.990224566339525 0.5561292537946573 0
2.015859329864652 0.601032757987411 0
2.041177190815608 0.5559477304122714 0
2.066818109147928 0.600855564813206 0
2.09213259478423 0.5557710179709322 0
2.117774443326183 0.6006760179252703 0
2.143088896138059 0.5555900146741853 0
2.168729305797513 0.6004921726308964 0
2.194045774061603 0.5554125217101814 0
2.219686577151481 0.6003111949874665 0
2.245003702950199 0.5552312296013228 0
2.270641766736839 0.6001298880828497 0
2.295962173634055 0.5550546947866846 0
2.321601310982481 0.599950595338254 0
2.346923922781879 0.5548708301001631 0
2.372568004594504 0.5997713467128002 0
2.397895756972162 0.5547000681173012 0
2.423546697517365 0.5996004731097838 0
2.448884659670238 0.5545095609010697 0
2.474538141419978 0.5994220729206983 0
2.499902931415869 0.5543494429014709 0
2.525546234724433 0.5993228147833797 0
2.550973655834774 0.5541346321759457 0
2.576685338327378 0.5992395038842441 0
2.602182482443039 0.5540180644105763 0
2.958944511946492 0.7598964409357507 0
2.628014314012249 0.5990918128353608 0
0.4429170888396284 0.3159793431387367 0
0.4184631156771032 0.357715436029677 0
0.3946070818022522 0.3157219358498637 0
0.3697276561976696 0.3576135465858128 0
2.449044355814981 0.643990885448769 0
2.24531935830005 0.6444881680698032 0
1.024857369602972 0.6487487015028032 0
2.041498164113345 0.6452136474256573 0
1.837701628146142 0.6459229900926835 0
0.3455853078837237 0.3150377509381005 0
0.3204780172155196 0.3574251905568473 0
0.3449438693484468 0.4002519798591844 0
1.633970683060678 0.6466170330762969 0
1.227333380683899 0.6479317947648683 0
1.430444030483603 0.6473399689389928 0
0.875196942148915 0.6483605753517908 0
0.6057010339261732 0.6883083412871458 0
0.5571396249147901 0.6885103796531055 0
2.653543252321963 0.5527758280498023 0
1.099471497978971 0.5148848291986879 0
2.602427017093663 0.6438096025956825 0
2.653851606946175 0.6437140715169269 0
1.353138019780104 0.5138574114565649 0
1.556762689169365 0.5115839513085039 0
1.760509743411542 0.5109012431757174 0
1.964341412665395 0.510388685431229 0
0.2953909602266698 0.4001745965167012 0
[...]
    <PointData>
      <DataArray type="Float64" NumberOfComponents="3" Name="Velocity" format="ascii">
2.999999848703857 0 0
0 0 0
0 0 0
3.23718324804345 0 0
3.237120832717432 0 0
3.000000000026655 0 0
3.000000079855778 0 0
3.000000373632499 0 0
2.999997347470054 0 0
2.99997503423187 0 0
3.000319556287512 0 0
3.001379607545233 0 0
2.969955825770973 0 0
2.61408255975325 0 0
1.539535905483985 0 0
0.4048721863228286 0 0
0 0.1078428590957331 0
0 0.1798962608989855 0
0 0.2975782766568502 0
0 0.46360208753627 0
1.46151271236844 0 0
2.070354901462947 0 0
2.411921293198556 0 0
2.642850063622835 0 0
2.790446630075189 0 0
2.892789709267346 0 0
2.948766780384324 0 0
2.977363366053802 0 0
2.990744516460931 0 0
2.996963950862809 0 0
2.999090938312114 0 0
2.99988182918118 0 0
3.00001238507664 0 0
3.000018518888889 0 0
3.000006498601504 0 0
2.999999473658826 0 0
2.999999456893809 0 0
2.999999907365177 0 0
3.000000066850755 0 0
2.999999998545757 0 0
2.999999996396296 0 0
3.000000001052712 0 0
2.999999999747938 0 0
3.000000000059719 0 0
2.999999999985515 0 0
3.000000000001017 0 0
3.000000000006538 0 0
2.999999999986351 0 0
3.000000000023007 0 0
2.99999999996808 0 0
3.000000000008193 0 0
3.000000000081926 0 0
2.999999999887161 0 0
2.999999999836824 0 0
3.000000000528156 0 0
2.999999999542589 0 0
3.000000000646804 0 0
2.99999998624582 0 0
3.000000063463039 0 0
3.000000322232211 0 0
2.999998156179154 0 0
2.999983502359457 0 0
3.00001897017033 0 0
3.000750525617687 0 0
3.007322533075383 0 0
3.054827188047063 0 0
3.238118544652595 0.001568361354685943 0
3.227867196388031 0.0009664148985224848 0
3.229231402815059 0.000816453950478532 0
3.229479960503486 2.408505936877011e-05 0
3.232301071357374 -0.0004358315433218568 0
3.23424384979177 -0.0005897473778920391 0
3.231779843087533 -0.0002499790412792073 0
3.230849059393537 -0.0004012814335515228 0
3.234556074594372 2.407010721878776e-05 0
3.232653954345332 6.698785298001534e-05 0
3.233559619500529 -0.0001944066590091108 0
3.229994664062392 -0.0006373466735674197 0
3.227333007939058 -0.00170934056887979 0
3.238259028283085 -0.001270438711212077 0
3.050271265050068 0 0
3.007984024052994 0 0
3.000884228200651 0 0
3.000040909151127 0 0
2.99999003940373 0 0
2.999998016578677 0 0
3.000000136787278 0 0
3.000000073707581 0 0
2.999999991445435 0 0
3.000000000125758 0 0
2.999999999582454 0 0
3.000000000494844 0 0
2.999999999861136 0 0
2.999999999909169 0 0
3.000000000053608 0 0
3.000000000012378 0 0
2.999999999984212 0 0
2.999999999997516 0 0
3.000000000012106 0 0
2.999999999988387 0 0
3.000000000007425 0 0
2.999999999996879 0 0
3.000000000000325 0 0
3.000000000000874 0 0
2.999999999998849 0 0
3.00000000000086 0 0
3.000000000000314 0 0
2.999999999998203 0 0
2.999999999999232 0 0
3.00000000000894 0 0
2.999999999995686 0 0
2.999999999966762 0 0
3.000000000022002 0 0
3.000000000126974 0 0
2.999999999939335 0 0
2.999999999562266 0 0
2.999999999841453 0 0
3.000000000856492 0 0
3.000000001253574 0 0
3.000000000524778 0 0
3.000000000033276 0 0
3.000000000048069 0 0
3.000000000838849 0 0
3.000000001438161 0 0
3.000000000758847 0 0
2.999999999915189 0 0
2.999999999697278 0 0
3.000000000125884 0 0
3.000000000061906 0 0
2.999999999906554 0 0
3.000000000027023 0 0
3.000000000009432 0 0
3.000000000000612 0 0
3.000000000004097 0 0
2.999999999997928 0 0
3.000000000002729 0 0
3.000000000010183 0 0
3.000000000015959 0 0
3.000000000020051 0 0
3.000000000029496 0 0
2.999999999836913 0 0
3.000000000210843 0 0
3.000000000333723 0 0
3.000000000243915 0 0
3.000000000255528 0 0
3.000000001646871 0 0
3.000000000006612 0 0
2.999999997017285 0 0
3.000000001796219 0 0
3.000000005879663 0 0
3.000000000435199 0 0
2.999999994270158 0 0
2.999999988026794 0 0
2.999999969472447 0 0
2.99999993774679 0 0
2.999999914405393 0 0
3.000000000090809 -1.930007427492496e-10 0
1.448805642355338 0.5160889085993965 0
2.999999996711912 5.396455561723928e-09 0
3.000000016544725 -2.404338861771792e-09 0
2.999999999929036 -4.213788580672514e-13 0
3.000000000006087 4.12248010181814e-12 0
3.000000000002456 -2.733405867882086e-13 0
3.000000000001334 -2.107705506047546e-13 0
3.000000000004807 1.481715061679667e-13 0
3.000000000074216 -1.598112879535845e-11 0
3.000000001106786 3.151883762124176e-11 0
3.000000000074321 3.111097417191287e-10 0
2.970062909236451 0.01219139007823546 0
3.000000001911733 -5.162143260491014e-11 0
2.999999999977761 1.734530072960401e-11 0
2.999999999995957 -1.420966355156842e-12 0
3.000000000014963 9.564714057335621e-13 0
2.999999992356575 6.253835968415245e-10 0
2.999999341416027 1.598084660655306e-07 0
3.000003337499345 -4.358386774792499e-05 0
1.441767226111485 0.6686674543677523 0
2.023834189773899 0.6218259533272495 0
3.068024060095091 -0.00026057719474955 0
2.169891549000926 0.4983724754881994 0
2.484571875729616 0.4105451126315289 0
2.67666122832837 0.2223304806278347 0
2.810759566565269 0.1647633061626599 0
2.99999965718952 -1.337060989648876e-07 0
2.9176498917186 0.0622893401825349 0
2.953446863448142 0.04316072778687424 0
2.902678651563766 0.1037309094384085 0
2.976999767918821 0.02566902393521476 0
2.954845017797564 0.05758958660237818 0
2.989837351263481 0.01348105454566413 0
2.981122037543571 0.02848702664117999 0
2.996375711067684 0.004456041600284444 0
2.999999999977183 1.308665262441806e-11 0
2.999999997016925 3.305818340893866e-09 0
2.996063124154237 0.006177412191095966 0
2.992928229991973 0.01256173701877616 0
2.999993485807658 -1.516176197364214e-07 0
3.000000000603788 1.616356484559183e-09 0
2.998697460751633 0.002410486150138409 0
2.997661457474562 0.004868810220809345 0
2.999999999953651 2.040967991585187e-10 0
3.000919298576477 -3.436897278589487e-05 0
2.989824021989 0.02211959183634775 0
2.996774480384621 0.008403514891147325 0
2.99962407526021 0.000815829631046378 0
2.999840936519772 0.0003218978874912698 0
3.079107586129889 -0.0002836166316910327 0
2.990249999756472 0.02839759980746413 0
2.997153363191647 0.01053244174795547 0
2.875501171734133 0.075082509964928 0
2.97778840624946 0.01547029160735143 0
2.993729378252107 0.02728160161524193 0
2.998450780180629 0.009785348888174703 0
2.999965490497405 8.529958029673665e-05 0
2.999992926728107 2.006029736464585e-05 0
2.999312561915925 0.003195790076295941 0
2.999687583619189 0.002930961419690163 0
2.999682675717278 0.007549887011302299 0
3.000000074029646 0.002061658595155949 0
3.000394534223536 0.004940225769795244 0
3.000124962711699 0.001219688804286028 0
3.000552691793673 0.002692346736973694 0
3.000118480673827 0.0005900347173823766 0
3.00042174691785 0.001239146759619729 0
3.000064442226984 0.0002238749023551055 0
3.00020160961013 0.0004131063109381036 0
3.0000161930022 5.381513125588133e-05 0
3.000066704887199 0.0001016317645697696 0
2.999995654225943 2.630136244537224e-06 0
3.000006911082394 9.181783609457659e-06 0
2.999993226017536 -4.40445104972164e-06 0
2.999992758344489 -4.570040585268679e-06 0
2.999996637079425 -1.85236345377163e-06 0
2.999995305917611 -1.758066707744072e-06 0
2.999999228302098 -2.277789663181762e-07 0
2.999998829510711 4.007079820583721e-08 0
3.000000192061243 7.465746020660982e-08 0
3.000000136335868 1.209234893901893e-07 0
3.000000158355027 4.16286325467089e-09 0
3.000000169027648 -2.474670953974548e-08 0
3.000000001251669 -8.200421905477034e-09 0
3.000000005167802 -1.466690457118511e-08 0
2.999999985847206 3.722560060237852e-09 0
2.999999986153083 7.850784977751295e-09 0
3.00000000295847 -6.495683523930482e-10 0
3.000000000593767 -2.55980468843977e-11 0
3.000000000698276 -5.7019014691135e-10 0
3.00000000090724 -8.719939339819361e-10 0
2.999999999555309 3.257187239286068e-10 0
2.999999999727758 3.002606189943308e-10 0
3.000000000084002 -7.293973062678888e-11 0
3.000000000027634 -5.697693912573393e-11 0
3.000000000002558 3.246573244690772e-12 0
3.000000000006941 6.400470215841291e-12 0
2.999999999993221 3.737035842143354e-12 0
2.999999999996824 3.644001054940554e-13 0
3.000000000002122 -2.134390545733278e-12 0
2.999999999998929 -5.490516009474458e-13 0
3.000000000002324 1.125524226797823e-12 0
3.000000000001599 1.760785374554527e-13 0
2.999999999992897 -4.371594124771267e-13 0
3.000000000002092 8.998398337109782e-14 0
3.000000000010352 -6.042752728837949e-13 0
2.999999999990102 9.674507912595163e-14 0
2.999999999992894 1.538928081908324e-12 0
3.000000000018384 -9.988482571967384e-13 0
2.999999999992221 -1.210191675915913e-12 0
2.99999999998444 1.930319219732761e-12 0
3.000000000027401 -5.30458842787914e-13 0
2.999999999985749 -1.385617283304776e-12 0
2.999999999987636 1.866749766086467e-12 0
3.00000000004148 -6.163300703099957e-13 0
2.99999999993335 -9.730999245905178e-13 0
3.000000000049281 1.106046898194462e-12 0
3.000000000050308 -1.645895252359312e-12 0
2.999999999793314 1.438360690692934e-12 0
3.000000000301234 2.471489573776846e-12 0
2.999999999895364 -2.089038571373514e-12 0
2.999999999413571 4.18750808433843e-12 0
3.000000001171579 -1.484063243399064e-11 0
3.000000000322461 -1.610916484696126e-11 0
2.999999996076735 9.809347047005046e-11 0
2.99999999582565 9.790329182748958e-11 0
3.000000006249921 5.764516839938358e-12 0
3.000000048971254 -4.198166487347436e-10 0
3.000000099074308 -3.839329231508868e-09 0
3.088603395531869 -1.468646494802067e-05 0
3.00000002876157 -3.399428304299557e-09 0
2.971127168069961 0.01622303792864587 0
2.996233908234824 0.002629207334810186 0
2.996382037446525 0.00200081389958065 0
2.999838471980106 0.0001742666140181774 0
3.000000001081989 -2.330780829830784e-12 0
3.000000000041619 8.031995404246634e-13 0
3.000006347560057 8.396582714406131e-05 0
2.999999999991284 -1.661186340347176e-12 0
3.000000000005176 -2.500847377393825e-12 0
3.000181020931189 -4.619096028073995e-05 0
3.000076538999139 -3.124285555428179e-05 0
3.000055081823244 -2.073158893361501e-05 0
2.999999999559785 2.167577729667204e-10 0
2.99999844907293 -1.415229602670326e-06 0
2.999999999363536 -2.04850065986321e-09 0
2.99994518103056 0.0006749060669913474 0
3.000000649353517 1.073812401581311e-06 0
3.000001681114031 -2.337212559326749e-06 0
2.999999628219715 -1.447327208584215e-08 0
3.00046214813303 0.000656579195953238 0
3.000000096347544 1.577010468317208e-10 0
2.999999623821404 1.734714807856289e-08 0
2.99999864724801 3.689502138302835e-07 0
2.999999990274382 8.980361786902538e-09 0
3.000000000020384 -5.440107538259482e-11 0
2.99999999999251 2.476826143976175e-13 0
3.000010792611203 -6.652502782115026e-06 0
3.000011093005019 -7.730934567924895e-06 0
3.000000000022778 -1.262372378575907e-12 0
3.000000000295116 1.339432648852233e-12 0
3.000000049220939 -8.699698569144041e-10 0
2.979188869326285 0.06473107973269532 0
3.001471969126584 0.009471654562882044 0
3.000000063891076 5.524234939025201e-09 0
2.99999808842239 5.729762562898494e-08 0
3.000000712045208 -1.548807329861004e-06 0
3.000001268737489 -2.597946702301999e-06 0
3.000000188976492 -4.900101441570191e-07 0
3.000000822609685 -1.418512167822555e-06 0
2.999999976101552 -4.190286558481673e-08 0
3.000000057412815 -2.561057868741532e-07 0
2.999999960624861 5.045161750084714e-08 0
2.999999924057703 5.186324018283104e-08 0
2.999999991850709 1.847078269866707e-08 0
2.999999971230862 4.012336421281321e-08 0
3.000000004263162 -2.10283000191635e-09 0
3.000000002512007 3.799168813851324e-09 0
0.3109538271022466 0.3367539621428979 0
2.970376893508895 0.0128819198726731 0
3.000000000412165 -1.969095294237749e-09 0
3.000056261647685 -1.829190326170802e-05 0
3.000325896798439 7.378885214907817e-05 0
2.999999491851188 -1.512584741543519e-07 0
2.755166206767207 0.09599765262124392 0
3.000000002760674 -3.235958660830335e-09 0
2.999999710687725 1.207124130872249e-08 0
3.000000093329884 -8.07861117865208e-10 0
2.999995927636473 7.441938525861742e-08 0
2.999995132158259 -4.09135316132259e-10 0
2.325334098132542 0.2126225951246752 0
3.00000000866155 -8.92267692338543e-08 0
2.999988473387972 6.483360131013202e-07 0
2.999999997148107 4.066436540995016e-10 0
2.999999996745204 1.479234262601643e-09 0
3.000230327119586 -5.261492425456328e-05 0
3.000027834698815 -8.265292629244354e-06 0
3.000000000008481 -4.873766156351927e-11 0
3.000000000806137 -4.214067448324456e-09 0
2.999999999979515 2.193173879200032e-12 0
3.000000000005765 -1.530354386579056e-12 0
2.999999999977764 1.151017219368667e-11 0
3.000000002730832 -1.063624624388299e-10 0
3.000000000033311 -2.863718012563358e-12 0
2.999999999995137 -1.40872136821461e-12 0
2.999999999923708 1.143074776301345e-11 0
3.000000039809013 -9.82531659646471e-09 0
3.000000000101689 3.132132660065998e-11 0
2.995658817996721 0.001384779497084621 0
3.000012651497558 -2.167233677100005e-06 0
3.000000255188169 6.68364684820456e-08 0
2.999999999986039 -9.171845191538882e-13 0
2.999999999978485 6.404896459576511e-13 0
3.000000001753749 4.433047063346941e-11 0
2.999999998241245 -3.379825896665285e-09 0
2.999999999704764 8.035860586938021e-11 0
2.999999999989985 -1.08990301483658e-11 0
2.999999999999209 -1.547768277716014e-13 0
3.000000000004803 -2.774418018382395e-13 0
2.999999999995206 -4.917007379174711e-12 0
2.999994853051978 -8.841287180601025e-07 0
2.999999999993837 2.701881686749563e-13 0
2.999999999996454 -1.673094927424845e-12 0
3.000000000733104 -7.561578481843906e-10 0
3.000000137453388 -5.438774952779987e-08 0
2.999999999782401 -4.230097989248448e-12 0
2.999999999930604 -2.559483475392863e-14 0
3.000031722333298 1.164771185230512e-05 0
3.000000010005373 3.652953184505156e-09 0
2.999999895627384 2.59126002660318e-09 0
3.000368380143049 -4.439888053940759e-05 0
2.884249964120733 0.001807522192882964 0
3.000000000033867 2.356913828879015e-11 0
2.999998379710894 4.893890092506694e-07 0
3.00000000274166 -3.502761337193875e-09 0
2.853995590369703 0.1820586025809806 0
2.999999630550707 2.049246467860225e-07 0
2.999999999419045 9.049995943335546e-10 0
2.999999996030267 1.136833833814967e-08 0
3.000000004518833 -2.974791641229232e-09 0
3.000004711171905 -1.96868114172596e-07 0
3.000000071749189 -2.544693093068518e-09 0
3.000000041910048 -1.051159407044336e-09 0
2.999999984380903 2.872656090549326e-08 0
3.000000000008267 -6.159784646848037e-10 0
3.00000204544136 -2.799526188848131e-06 0
3.000060966838193 -3.108638590157226e-06 0
3.000000000194383 3.793863811130496e-10 0
3.000024726735078 -2.440176055598649e-06 0
3.000177417712766 -4.025025472543495e-05 0
2.99999801729941 -5.942973589304001e-07 0
2.999994984763792 1.024223001512671e-06 0
2.999995373682625 5.599930299339269e-08 0
3.000057393997239 1.163212294099705e-07 0
3.07920720014293 0.001222866098857886 0
3.063720979259514 -0.001146248139754439 0
3.000006391036233 -5.191736815215942e-06 0
2.999999999963732 -2.328469729077804e-10 0
2.989172289409086 0.05437908172633783 0
2.9643147251043 0.1129376129675298 0
2.984403245158853 0.08414432888925362 0
3.000006737440652 -5.687375143632977e-07 0
2.999928704224371 0.0001852638211633792 0
1.855141929252451 0.495022261898938 0
3.000015493271463 -1.354018364634207e-06 0
2.999999725665833 1.388735001672114e-07 0
3.000000040387041 -5.041301814838995e-09 0
3.000000015756092 5.242089091198922e-09 0
2.999996140033028 8.310359247022757e-07 0
2.999999999839705 1.003053624877444e-10 0
2.947719350365554 0.1486526190291188 0
2.975290283355478 0.1029412347579314 0
2.905846701684247 0.1990000067053414 0
3.000315575991847 -1.240933265956083e-05 0
3.000074242330412 4.073000985846898e-07 0
3.000000000102641 -2.278169420325031e-11 0
3.000000000287598 -3.160486541450151e-10 0
3.000000084504324 -2.451717901559126e-09 0
3.000000005228105 -4.998135071764138e-10 0
2.999999995519008 1.595718660973454e-10 0
2.999999996781899 1.829496953867917e-10 0
3.000000000588825 -2.058423039835221e-11 0
3.000000000875889 -3.27488121907818e-11 0
2.999999999354889 6.07673125801275e-12 0
3.000000000077734 8.136930511525703e-12 0
3.000000000249485 7.559624638363772e-12 0
2.999999999783362 -1.448693697477401e-11 0
3.00000000008651 4.322221481132151e-12 0
3.000000000020438 -9.832549449818046e-12 0
2.999999999927902 2.242963365513536e-13 0
3.000000000041124 1.629767504468998e-11 0
2.999999999992581 -7.351254340746306e-12 0
2.999999999996802 -2.492679067056489e-12 0
3.000000000013276 4.111995244277143e-12 0
2.999999999981032 -5.549029916361583e-12 0
3.000000000011188 9.957255411322093e-13 0
3.000000000012361 4.183242028279555e-12 0
2.999999999975307 -2.903170557611955e-12 0
3.000000000001418 -5.746798568927155e-13 0
3.000000000022152 2.720337624486894e-12 0
2.999999999990488 -1.633948412798907e-12 0
2.999999999987756 -1.784270803747093e-12 0
3.000000000009922 2.26157315360518e-12 0
3.000000000003188 6.438959530019594e-13 0
2.999999999993777 -1.883590954499301e-12 0
3.000000000001805 1.589947475452545e-13 0
3.000000000002557 1.09816775782271e-12 0
2.999999999996841 -4.917298660386998e-13 0
2.999999999999522 -4.860811075907405e-13 0
3.000000000000445 1.226120042613184e-12 0
2.999999999998543 4.312701785760896e-13 0
3.000000000009703 -2.8132606249663e-12 0
3.000000000009043 -1.021906236494081e-12 0
2.999999999962257 3.761599952242002e-12 0
2.999999999966638 1.091219626304811e-12 0
3.000000000109184 -2.507544543320997e-12 0
3.000000000045937 1.112335788329673e-11 0
2.999999999885655 -3.471309230408062e-11 0
3.000000000088597 -2.517131544535273e-11 0
2.999999999563534 6.307206362570168e-11 0
2.999999999556019 -3.713876367122393e-11 0
3.000000001724608 2.8697125923687e-10 0
3.000000000179836 3.134529282840913e-10 0
3.000000000620484 -1.148056760969229e-09 0
3.000000002102078 3.41262648896268e-12 0
2.999999990107244 -3.326050469614024e-09 0
2.999999998652607 -2.431063467953079e-09 0
2.999999987897394 4.204685286409867e-09 0
2.99999999061188 -2.086717494075448e-09 0
3.000000017998821 3.133239851240583e-08 0
2.999999992324616 9.256124983303204e-09 0
3.000000082799316 5.430102116888373e-08 0
3.000000014130433 3.271053313132269e-08 0
3.000000137661298 -3.272836574599715e-09 0
3.000000055206859 4.523983253370102e-08 0
3.000000116949891 -2.506607609616093e-07 0
3.000000102487784 1.841880450101969e-08 0
2.999999947330063 -7.857709537865569e-07 0
3.000000120209715 -1.095344522771904e-07 0
2.999999634705411 -1.629800781293162e-06 0
3.000000096065335 -4.101799446238858e-07 0
2.999999360513667 -2.503895818923516e-06 0
3.000000067778943 -8.548084539259815e-07 0
2.999999419884741 -2.960468180272585e-06 0
3.000000120711897 -1.208832677238332e-06 0
2.999999631350058 -2.840939902453824e-06 0
3.000000244782437 -1.224735619074544e-06 0
3.000000294505561 -3.597426758926322e-06 0
3.000000271938922 -8.854848139596818e-07 0
3.000005374808746 -3.888616736340616e-07 0
3.000273684644306 -3.338769232225977e-06 0
2.999999987819658 1.64806735967943e-08 0
3.000000005858208 -2.960066231906353e-09 0
3.000089277485758 -2.053836666041324e-05 0
3.000639535660303 -0.000125023044883587 0
3.000912217316704 -2.288078427447458e-05 0
3.000000853033951 -3.164273029369861e-06 0
3.000000130058678 -3.533122776693025e-07 0
2.999997970548523 -5.758922979310107e-07 0
2.999999630679434 1.534510840191956e-07 0
3.0011275891123 -5.046911144259975e-06 0
3.000294084139376 5.16499511204041e-06 0
3.002937867090143 2.977523003168726e-05 0
3.000933359938953 -3.154135000320896e-05 0
3.000062332741922 -1.717402967154088e-06 0
3.000292251502048 -2.168099177954688e-05 0
3.000005550169717 -1.055878836868467e-06 0
3.000077921162319 -4.341789979331928e-06 0
2.999994200091793 1.607230277310155e-07 0
3.000002275996799 9.900899590077641e-07 0
2.999994705102482 -1.407352063431156e-08 0
3.000379364483674 2.105924150966871e-06 0
2.999997726121724 4.788464028990231e-08 0
2.999999604551681 -4.677702393850232e-08 0
3.000004267433679 -3.882988181643928e-06 0
3.000010813472277 -3.713684266549129e-06 0
3.000000009149145 -6.885341883076861e-09 0
3.000000065343441 -1.189945417728143e-07 0
3.000000257116953 -1.623331798480596e-08 0
3.00000000003151 5.74155658514054e-11 0
0.8167011790460165 0.05466850351462905 0
3.000000073168648 2.147445035929407e-09 0
3.000000105404919 1.737354862442173e-09 0
3.000000048586321 8.631884020439484e-10 0
3.000000005143684 1.256013590020784e-09 0