<?xml version="1.0"?>
<VTKFile type="UnstructuredGrid">
  <UnstructuredGrid>
  <Piece NumberOfPoints="1224"  NumberOfCells="2290">
    <Points>
      <DataArray type="Float64" NumberOfComponents="3" format="ascii">
0 0 0
0.6 0 0
0.6 0.2 0
3 0.2 0
3 1 0
0 1 0
0.05454545454535233 0 0
0.1090909090906768 0 0
0.1636363636359771 0 0
0.2181818181812728 0 0
0.2727272727265793 0 0
0.3272727272720317 0 0
0.3818181818176247 0 0
0.4363636363632168 0 0
0.4909090909088285 0 0
0.5454545454544089 0 0
0.6 0.03999999999991203 0
0.6 0.07999999999979179 0
0.6 0.1199999999997886 0
0.6 0.1599999999998948 0
0.6510638297871261 0.2 0
0.7021276595742618 0.2 0
0.7531914893613819 0.2 0
0.8042553191485237 0.2 0
0.8553191489356438 0.2 0
0.9063829787228289 0.2 0
0.957446808509926 0.2 0
1.008510638297009 0.2 0
1.059574468084092 0.2 0
1.110638297871174 0.2 0
1.161702127658257 0.2 0
1.21276595744534 0.2 0
1.263829787232422 0.2 0
1.314893617019505 0.2 0
1.365957446806588 0.2 0
1.417021276593671 0.2 0
1.468085106380754 0.2 0
1.519148936167923 0.2 0
1.570212765955006 0.2 0
1.621276595742088 0.2 0
1.672340425529171 0.2 0
1.723404255316254 0.2 0
1.774468085103337 0.2 0
1.825531914890624 0.2 0
1.876595744677951 0.2 0
1.927659574465349 0.2 0
1.978723404252714 0.2 0
2.029787234040074 0.2 0
2.080851063827477 0.2 0
2.131914893614798 0.2 0
2.182978723402204 0.2 0
2.234042553189523 0.2 0
2.285106382976928 0.2 0
2.336170212764247 0.2 0
2.387234042551653 0.2 0
2.438297872338975 0.2 0
2.489361702126377 0.2 0
2.540425531913739 0.2 0
2.591489361701102 0.2 0
2.642553191488421 0.2 0
2.693617021275827 0.2 0
2.744680851063146 0.2 0
2.795744680850551 0.2 0
2.84680851063787 0.2 0
2.897872340425276 0.2 0
2.948936170212618 0.2 0
3 0.2533333333332341 0
3 0.3066666666664725 0
3 0.3599999999996274 0
3 0.413333333332804 0
3 0.4666666666659806 0
3 0.5199999999991571 0
3 0.5733333333323336 0
3 0.6266666666656895 0
3 0.6799999999991551 0
3 0.7333333333326146 0
3 0.7866666666660802 0
3 0.8399999999995775 0
3 0.8933333333330373 0
3 0.9466666666664969 0
2.949152542373491 1 0
2.898305084746983 1 0
2.847457627120474 1 0
2.796610169493702 1 0
2.745762711866469 1 0
2.694915254239208 1 0
2.644067796611963 1 0
2.593220338985156 1 0
2.542372881358647 1 0
2.491525423732018 1 0
2.44067796610481 1 0
2.389830508477549 1 0
2.338983050850287 1 0
2.288135593223026 1 0
2.237288135595765 1 0
2.186440677968504 1 0
2.135593220341243 1 0
2.084745762713982 1 0
2.033898305086721 1 0
1.983050847459614 1 0
1.932203389832729 1 0
1.881355932205844 1 0
1.830508474578958 1 0
1.779661016952073 1 0
1.728813559325189 1 0
1.677966101698303 1 0
1.627118644071418 1 0
1.576271186444533 1 0
1.525423728817648 1 0
1.474576271190575 1 0
1.423728813563314 1 0
1.372881355936053 1 0
1.322033898308791 1 0
1.27118644068153 1 0
1.220338983054269 1 0
1.169491525427008 1 0
1.118644067799747 1 0
1.067796610172485 1 0
1.016949152545224 1 0
0.9661016949179628 1 0
0.9152542372907018 1 0
0.8644067796634407 1 0
0.8135593220361792 1 0
0.7627118644089181 1 0
0.7118644067816566 1 0
0.661016949154396 1 0
0.6101694915271345 1 0
0.5593220338998739 1 0
0.5084745762726124 1 0
0.4576271186453518 1 0
0.4067796610180903 1 0
0.3559322033908292 1 0
0.3050847457635677 1 0
0.2542372881363066 1 0
0.2033898305090456 1 0
0.1525423728817841 1 0
0.101694915254523 1 0
0.05084745762726151 1 0
0 0.9473684210524125 0
0 0.8947368421048248 0
0 0.8421052631576025 0
0 0.7894736842105994 0
0 0.7368421052635962 0
0 0.6842105263165927 0
0 0.6315789473695894 0
0 0.5789473684225861 0
0 0.5263157894755828 0
0 0.4736842105282874 0
0 0.4210526315806998 0
0 0.3684210526331123 0
0 0.3157894736855248 0
0 0.2631578947379374 0
0 0.21052631579035 0
0 0.1578947368427625 0
0 0.1052631578951749 0
0 0.05263157894758741 0
0.4374856279758046 0.955462795473483 0
0.625531914893563 0.2394317949808221 0
0.7891616249544176 0.9557759867023439 0
2.570562443351098 0.9559758769411787 0
2.364406779663917 0.9559648099769389 0
2.161016949154874 0.9559648099769389 0
1.957627118646171 0.9559648099772646 0
1.756856606547665 0.9560078743553572 0
1.553415402058453 0.9561420672712786 0
1.347457627122422 0.95627738856474 0
1.144067796613377 0.9563034567995272 0
0.04146670856173688 0.5498854761242812 0
0.9828861012149002 0.2442383967812095 0
2.465390809289578 0.2421522008426663 0
2.259572257543314 0.243586373321511 0
2.055319178697841 0.24363095694403 0
1.851066099915384 0.2436741865527954 0
1.646810778591931 0.2437170671454607 0
1.442550972205278 0.2437587738062726 0
1.238275543433999 0.2442249255777628 0
0.5808319854219957 0.2417757800606361 0
0.6039807146029165 0.2785115072887754 0
2.951522810440164 0.5995349944823752 0
0.5591131416216563 0.2791940688436214 0
0.5817690965011905 0.3180386921514113 0
0.5363223429032008 0.3181181454258206 0
0.5590799034518541 0.3577335228902347 0
2.671507320584846 0.2416532643303031 0
0.5129751095268966 0.3576683284772433 0
0.5360042291720796 0.3976917483469583 0
0.5824744072527975 0.3977458985417416 0
0.5593202208963615 0.4382323507424581 0
0.6062221806132498 0.4382172989803606 0
0.5831398502988122 0.4790536480492864 0
0.630245509211025 0.4792447281197085 0
0.5373735766893435 0.4817209888486334 0
0.2780994584865757 0.9660670791366374 0
0.9407829849899363 0.9559852449915113 0
0.6069171020766708 0.5203953730037822 0
0.6544691944766102 0.5205851219036783 0
2.724115018794794 0.9563165682871465 0
0.04341732373162228 0.2894490564426765 0
0.6304562046384772 0.5622881188475496 0
0.6786259291441818 0.5621981517123112 0
0.03938236249337418 0.7091098825652095 0
0.2999999999993055 0.04723774929726795 0
0.7024556039582556 0.5200372393771872 0
0.726826368578132 0.562505099575485 0
0.6545296629344706 0.6041261864689124 0
0.6061411599039735 0.6041581669226386 0
2.954333097254252 0.4393531299125908 0
0.7512905139641642 0.5199435586712576 0
0.7757938242112172 0.5624873891767795 0
0.4902278874550028 0.3174350849704655 0
0.4661669324669476 0.3576870257641042 0
0.8003371868304782 0.5195844107098163 0
0.8251782158071723 0.5621174250913318 0
0.6300572939290072 0.6460588488486728 0
0.581677101888915 0.6462390077748084 0
0.7994632498085218 0.6067218912904607 0
0.850068894442807 0.6047738158182728 0
0.8747482025846163 0.5617915498272615 0
0.8998102571129438 0.6045430073239006 0
0.924588798996443 0.5614360364847856 0
0.9497125983499418 0.6046345614192383 0
0.9744389394813738 0.5613114208485291 0
0.9997656958801404 0.604758732930365 0
1.024028015453996 0.5597386087889248 0
1.050046148741532 0.6042836632406788 0
1.075213347289947 0.5607219500906248 0
1.100604808237692 0.6043040651294929 0
1.125727120818654 0.5598592244124957 0
1.151165990249003 0.6040638744783449 0
1.176319565514503 0.5595216793632644 0
1.201793840633129 0.6038781229769293 0
1.226960854257978 0.5600604284234054 0
1.252470704079807 0.6038664424080111 0
1.277198987313166 0.55874807111347 0
1.303148970446812 0.6035341865995129 0
1.328130525802366 0.5586520846649797 0
1.353966012915828 0.6034054551655909 0
1.379205474149696 0.558835304845746 0
1.404820923589671 0.6032503772964327 0
1.430092956912838 0.5587079795953892 0
1.455686300628245 0.6030926920218221 0
1.480963489515269 0.5580480170404921 0
1.506562983627252 0.6028436706904448 0
1.531847734917255 0.5577680566445021 0
1.557453558526421 0.6026435181305781 0
1.582745756648754 0.5575726351194972 0
1.608358176126191 0.6024617369905624 0
1.633656322435163 0.5573842056888257 0
1.659277805706528 0.6022873884346892 0
1.684577462424181 0.5572075399874397 0
1.710203504633815 0.6021111834258887 0
1.735506494091908 0.5570246051384745 0
1.761134606493805 0.6019307913070558 0
1.786441498808711 0.5568475628142857 0
1.812072359676459 0.6017522495250318 0
1.837381834584306 0.5566653603575672 0
1.863017119880456 0.601574020443024 0
1.888326681794851 0.5564884669211013 0
1.913963858781491 0.601395113412113 0
1.939274704592935 0.5563067813822595 0
1.964908406083961 0.6012129143420911 0
1.990224566339525 0.5561292537946573 0
2.015859329864652 0.601032757987411 0
2.041177190815608 0.5559477304122714 0
2.066818109147928 0.600855564813206 0
2.09213259478423 0.5557710179709322 0
2.117774443326183 0.6006760179252703 0
2.143088896138059 0.5555900146741853 0
2.168729305797513 0.6004921726308964 0
2.194045774061603 0.5554125217101814 0
2.219686577151481 0.6003111949874665 0
2.245003702950199 0.5552312296013228 0
2.270641766736839 0.6001298880828497 0
2.295962173634055 0.5550546947866846 0
2.321601310982481 0.599950595338254 0
2.346923922781879 0.5548708301001631 0
2.372568004594504 0.5997713467128002 0
2.397895756972162 0.5547000681173012 0
2.423546697517365 0.5996004731097838 0
2.448884659670238 0.5545095609010697 0
2.474538141419978 0.5994220729206983 0
2.499902931415869 0.5543494429014709 0
2.525546234724433 0.5993228147833797 0
2.550973655834774 0.5541346321759457 0
2.576685338327378 0.5992395038842441 0
2.602182482443039 0.5540180644105763 0
2.958944511946492 0.7598964409357507 0
2.628014314012249 0.5990918128353608 0
0.4429170888396284 0.3159793431387367 0
0.4184631156771032 0.357715436029677 0
0.3946070818022522 0.3157219358498637 0
0.3697276561976696 0.3576135465858128 0
2.449044355814981 0.643990885448769 0
2.24531935830005 0.6444881680698032 0
1.024857369602972 0.6487487015028032 0
2.041498164113345 0.6452136474256573 0
1.837701628146142 0.6459229900926835 0
0.3455853078837237 0.3150377509381005 0
0.3204780172155196 0.3574251905568473 0
0.3449438693484468 0.4002519798591844 0
1.633970683060678 0.6466170330762969 0
1.227333380683899 0.6479317947648683 0
1.430444030483603 0.6473399689389928 0
0.875196942148915 0.6483605753517908 0
0.6057010339261732 0.6883083412871458 0
0.5571396249147901 0.6885103796531055 0
2.653543252321963 0.5527758280498023 0
1.099471497978971 0.5148848291986879 0
2.602427017093663 0.6438096025956825 0
2.653851606946175 0.6437140715169269 0
1.353138019780104 0.5138574114565649 0
1.556762689169365 0.5115839513085039 0
1.760509743411542 0.5109012431757174 0
1.964341412665395 0.510388685431229 0
0.2953909602266698 0.4001745965167012 0
[...]
    <PointData>
      <DataArray type="Float64" NumberOfComponents="3" Name="Velocity" format="ascii">
3.000000122399396 0 0
0 0 0
0 0 0
3.168444011809506 0 0
3.171516825632528 0 0
3.000000000000032 0 0
2.99999987544512 0 0
3.000000564052792 0 0
2.999997154442744 0 0
3.000012288835592 0 0
2.999956866581305 0 0
3.000093831954284 0 0
3.000245335002975 0 0
2.994536720976462 0 0
3.060070375257445 0 0
2.683984282494952 0 0
0 0.004955383635312101 0
0 0.004160179169456516 0
0 -0.003145190491058366 0
0 0.06107749355073332 0
2.308634198197689 0 0
2.918587141703399 0 0
3.006489939574518 0 0
3.001174597473257 0 0
2.999419428919352 0 0
3.000151261872241 0 0
2.999978959367699 0 0
3.000000275621484 0 0
3.0000005706812 0 0
2.999999790867725 0 0
3.00000006659086 0 0
2.999999979791449 0 0
3.000000004780518 0 0
2.999999999701838 0 0
2.99999999961424 0 0
3.000000000204524 0 0
2.999999999934993 0 0
3.000000000015697 0 0
2.999999999997027 0 0
3.000000000000397 0 0
2.999999999999988 0 0
2.999999999999984 0 0
3.000000000000006 0 0
2.999999999999998 0 0
3.000000000000001 0 0
3 0 0
3.000000000000001 0 0
2.999999999999965 0 0
3.000000000000189 0 0
2.99999999999975 0 0
2.999999999997046 0 0
3.00000000002232 0 0
2.999999999941246 0 0
2.99999999984094 0 0
3.000000002093401 0 0
2.999999990798453 0 0
3.000000032410326 0 0
2.999999880711297 0 0
3.000000450619741 0 0
2.999998428515151 0 0
3.000004244501422 0 0
3.000000390168248 0 0
2.999924810333221 0 0
3.000444095389323 0 0
2.997672655825073 0 0
3.008757068517493 0 0
3.171613747932858 0.0005992052578211109 0
3.162048692830141 -0.0003679875919894516 0
3.16336027384247 7.963823668199636e-05 0
3.16325110232773 -6.150137978504955e-05 0
3.164981700344065 -0.0002267497114292822 0
3.166447962459869 -6.600958334678639e-05 0
3.164992953358447 0.0004426385842860532 0
3.164333778044695 -0.0005238690826852634 0
3.167760573271717 7.5112236155598e-06 0
3.166021039539705 9.515307268439175e-05 0
3.166687080158669 3.540720219520761e-05 0
3.16320157603852 0.0004611410722314411 0
3.162797768762473 -0.0005489559014120733 0
3.175327314597729 -0.0001759796577390149 0
3.006250198941168 0 0
2.997641062920267 0 0
3.000328959730571 0 0
2.999960426654531 0 0
3.000000353403378 0 0
3.000002792809979 0 0
2.99999868913001 0 0
3.00000039556921 0 0
2.999999900660428 0 0
3.000000024172169 0 0
2.99999999416849 0 0
3.000000000692863 0 0
3.000000000122892 0 0
2.999999999928319 0 0
3.000000000014311 0 0
2.999999999999389 0 0
2.999999999999601 0 0
3.000000000000099 0 0
3 0 0
2.999999999999993 0 0
3.000000000000001 0 0
3.000000000000001 0 0
3 0 0
3 0 0
3 0 0
3 0 0
3 0 0
3 0 0
3 0 0
2.999999999999997 0 0
3.000000000000003 0 0
3.000000000000004 0 0
2.999999999999972 0 0
3.000000000000015 0 0
3.000000000000111 0 0
2.999999999999845 0 0
2.999999999999649 0 0
3.000000000000655 0 0
3.000000000001164 0 0
2.999999999998255 0 0
2.999999999995683 0 0
3.000000000001302 0 0
3.000000000010614 0 0
3.000000000011606 0 0
3.000000000001803 0 0
2.999999999989396 0 0
2.999999999977484 0 0
2.999999999978699 0 0
2.999999999999703 0 0
3.000000000006019 0 0
2.999999999999864 0 0
3.000000000000171 0 0
3.000000000000377 0 0
2.999999999999768 0 0
3.000000000000103 0 0
2.999999999999964 0 0
3.000000000000006 0 0
2.999999999999992 0 0
2.999999999999812 0 0
3.000000000000628 0 0
2.999999999999718 0 0
2.999999999995412 0 0
3.000000000013987 0 0
2.999999999989541 0 0
3.000000000100094 0 0
2.999999999099853 0 0
2.999999999990558 0 0
3.000000002024943 0 0
2.999999999690275 0 0
2.999999994342027 0 0
2.999999972082182 0 0
2.999999966615504 0 0
2.999999982723662 0 0
2.999999998387632 0 0
3.000000036723675 0 0
3.000000072694218 0 0
2.999999999995921 -1.427654761844655e-11 0
2.325869969306758 0.1941029070434411 0
2.999999999976022 -2.055541537656722e-11 0
2.999999945633452 -8.659031969744801e-09 0
2.999999999274093 -1.003898410404652e-11 0
3.000000000001447 7.081402503001392e-14 0
3 -2.340295559397648e-16 0
3 1.078480349315624e-16 0
2.999999999999999 3.815459648121493e-16 0
3.000000000000011 -1.862388753876623e-14 0
3.000000000000626 -9.284563859237069e-14 0
3.000000001008317 -2.226317116599373e-10 0
2.999982443328024 1.449201267410655e-06 0
3.000000002044243 6.919133507854668e-10 0
2.999999999976658 7.528150978437755e-13 0
2.999999999999999 -3.112547668727051e-15 0
3 -1.378964614530909e-18 0
2.999999999999662 4.635583217695063e-15 0
3.00000000008357 -1.504021649716615e-12 0
3.000000041578298 -1.427590028217409e-09 0
2.520481937318161 0.1643067797467202 0
2.890244140898738 0.08142205746446449 0
3.013738948016074 -3.64189830503797e-05 0
2.968189834423893 0.02658422283312958 0
3.004177263414344 0.001995007373628949 0
3.004124280134745 -0.002098459477136128 0
3.00081434337973 -0.001383834820757811 0
2.999997768602219 2.028752327056184e-07 0
2.999655784163264 6.717770083754778e-05 0
2.999779449482298 0.0002287174418917255 0
2.999671232162139 0.0001834300107537145 0
3.000015770694347 3.293320916591325e-05 0
2.99996792774729 0.00016853676787127 0
3.000017050595793 -3.881776148747655e-05 0
3.00002148155522 -5.335463785913802e-05 0
3.000004105269525 -1.495167121048959e-05 0
3.000000000000541 -3.82103698503949e-13 0
3.000000000006718 1.491638221874792e-12 0
2.999995112376487 2.767132847226523e-06 0
2.999994150231758 4.91162376460467e-06 0
3.000009557279093 4.379905007668e-07 0
3.000000023162677 -2.686240934658373e-09 0
3.000000697352057 3.366709394564475e-06 0
3.000001642853848 1.276443966373549e-06 0
2.999999999981926 4.843012248406461e-12 0
2.999894489473849 6.06481151266294e-07 0
2.999995324895856 8.635087178489291e-06 0
3.000001507657621 -1.293166461591102e-06 0
2.999999822025569 -1.452416758378459e-06 0
2.999999974809496 -1.470116625301886e-06 0
3.020296448614883 -3.919170846992622e-05 0
2.999999909304841 7.327124718995776e-06 0
3.000000172842821 -1.838653774890316e-06 0
2.999987333376086 -0.0002655818903893417 0
2.999844686123779 0.0001244918757876532 0
3.000002937915198 1.060534022449683e-06 0
2.999999215007403 -3.53859894197298e-07 0
2.999999980702961 3.880541830124292e-07 0
2.999999971501524 3.481811499702803e-07 0
2.999999958043932 4.596410887639086e-07 0
3.000000191407192 9.986950610327862e-08 0
2.99999962436196 4.642494852087289e-07 0
3.000000104001987 -1.139125945888081e-07 0
3.000000174507413 1.50397097080406e-07 0
2.999999954322065 -4.40607231443125e-08 0
3.000000162052808 -1.33593465227014e-07 0
2.999999955361595 3.848119976950388e-08 0
2.999999957288025 -1.994289613610811e-08 0
3.000000015381014 4.040880642269705e-09 0
2.999999951419694 3.417089370596729e-08 0
3.000000011254386 -9.362710767559417e-09 0
3.000000026523424 -7.351302410125469e-09 0
2.9999999926087 2.418010901853119e-09 0
2.999999999218676 -2.033619298043188e-09 0
3.000000000938229 3.479195639198225e-10 0
2.999999996021334 1.742715999018009e-09 0
3.000000000695656 -4.329793792504603e-10 0
3.000000002193684 -6.345496838402886e-10 0
2.999999999499423 1.756541044531617e-10 0
2.999999999170702 1.88354077413899e-10 0
3.00000000020762 -5.297215128133332e-11 0
3.000000000252492 -4.971118532772028e-11 0
2.999999999934248 1.337456461874498e-11 0
2.999999999930389 1.27309782560006e-11 0
3.000000000017961 -3.130996362577062e-12 0
3.000000000018586 -3.330362462470649e-12 0
2.999999999995263 7.839193854493702e-13 0
2.99999999999521 8.549726226448432e-13 0
3.000000000001276 -2.183670495190061e-13 0
3.000000000001172 -2.053411817827768e-13 0
2.999999999999647 6.30607064291551e-14 0
2.999999999999735 4.40778211471199e-14 0
3.000000000000096 -1.699063826791159e-14 0
3.00000000000005 -7.827999696443293e-15 0
2.999999999999977 4.298167787024147e-15 0
2.999999999999991 9.848090047128727e-16 0
3.000000000000005 -8.005956410131848e-16 0
3 -6.252268710180871e-17 0
2.999999999999999 1.779908898977197e-16 0
3 -5.365933310590529e-17 0
3.000000000000002 -1.522377876056292e-16 0
3 -1.334055830415503e-18 0
2.999999999999998 1.436214487830543e-16 0
3.000000000000003 -1.263583222706096e-16 0
2.999999999999998 -6.22703809576638e-16 0
2.999999999999996 4.19270686532882e-17 0
3.000000000000014 1.825341284861754e-15 0
2.999999999999986 6.580215058350965e-17 0
2.999999999999992 -2.363730349364185e-15 0
3.000000000000098 -2.313773134518711e-16 0
2.99999999999973 -5.011983373984177e-15 0
3.000000000000054 5.362646730406309e-15 0
3.000000000001577 4.803018166221272e-14 0
2.99999999999662 -4.783870750902876e-14 0
2.9999999999984 -2.041152870523428e-13 0
3.000000000019206 3.534405183161336e-13 0
2.999999999969693 6.021637582618863e-13 0
2.999999999966146 -2.193990455375986e-12 0
3.000000000215678 -1.054715414635751e-12 0
2.99999999978088 1.09502656610515e-11 0
2.999999999364192 -9.012186507009762e-13 0
3.000000001850442 -4.534404224150135e-11 0
3.00000000017538 1.324499908486144e-11 0
2.999999992587274 2.0724564255355e-10 0
3.000000004731017 -3.060389217637303e-11 0
3.000000027470577 -1.249408941385345e-09 0
2.999999972771227 1.234804779321512e-10 0
2.999999893870366 5.768932803177955e-09 0
3.000000144613324 -3.948437643953295e-10 0
3.000000378271636 -1.937123598534571e-08 0
3.027706403490718 1.603437533960266e-05 0
2.999999412044799 1.68508785279215e-09 0
2.999585843430872 0.0001774096542614382 0
3.000094366311556 -3.56261383060562e-05 0
3.000105758323751 -2.123369106284778e-05 0
2.999994045507895 -2.087910026301374e-06 0
2.999999992408707 -1.76931581379716e-10 0
3.000000000019726 -1.81423087820036e-13 0
3.00000001020398 -1.091935057054983e-08 0
2.999999999999976 -6.414973044624263e-15 0
3 -8.572705662445987e-17 0
2.999995386964171 -2.130568605329954e-06 0
2.999993610370525 2.506623835639156e-06 0
2.999996930207403 2.094257780401739e-06 0
3.000000000000059 -8.567416163204506e-15 0
2.9999999995287 3.476894428070451e-11 0
3.000000000015572 -3.526100826682871e-12 0
2.999999950009791 -2.901882664289748e-08 0
3.000000015776152 -4.189135966693402e-08 0
3.000000012660019 -7.47007362673438e-08 0
2.999998628422323 4.403368624959541e-08 0
2.999999910390819 2.61440838446868e-08 0
3.000000397836858 1.729049638049623e-08 0
2.999998602738482 -4.495991229941075e-08 0
2.999999999178878 1.618717155302262e-10 0
2.999999999997763 3.817771098617657e-13 0
3.000000000000005 -7.455740298997743e-16 0
3 7.713355606216884e-16 0
3.000002395977575 -7.687455415709144e-07 0
3.000001415933407 -7.509120255655986e-07 0
3.000000000001309 1.754608192758148e-14 0
2.999999999591722 -1.666584828109987e-11 0
3.000000156227656 -4.481365910583888e-09 0
2.999988766108599 -9.992887150762922e-07 0
2.999999448749964 4.484866714293085e-07 0
2.999999485767182 2.585821429469117e-08 0
3.000000405484593 -2.375735379577868e-07 0
2.999999993708528 -1.22532195220281e-09 0
2.999999995085043 -6.190521847705506e-09 0
2.999999997195111 1.869040759390416e-08 0
3.000000005574314 -5.672246171355123e-08 0
2.999999999123963 1.366322737794743e-08 0
2.999999994228442 2.50851358130228e-09 0
3.000000001450875 -2.452743928653437e-09 0
2.999999991457413 1.454026245457382e-08 0
3.000000001632129 -2.862448807559962e-09 0
3.000000001988326 -2.066506520316042e-09 0
2.999999999138862 1.021297948798101e-09 0
3.000000002360444 -2.148864287543238e-09 0
1.89700487916265 0.003780150940754486 0
2.999590679313628 0.0001088034618743303 0
2.999999999814001 1.256467496938464e-10 0
2.999997036123144 9.496764142036711e-07 0
3.000241064309781 1.210158729405314e-05 0
2.999999350702862 1.967670851621241e-07 0
2.998977866353759 3.954847858036829e-05 0
2.999999998611116 1.012955371758554e-09 0
2.999998059752413 1.326838121932186e-08 0
3.000000481087897 -2.976437617768369e-09 0
3.000007739526896 -3.182343453532421e-08 0
3.000005560830974 9.098846112637261e-07 0
2.999866167723976 0.005253893151182089 0
3.000000001909793 5.594517706739141e-11 0
2.999996054930514 -1.07514620756667e-07 0
3.000000001586775 -1.586745553594504e-10 0
3.000000033075961 -5.392796933066028e-09 0
2.999984597130172 1.741490506272045e-06 0
3.00000417090718 -7.499504335315817e-07 0
3.000000000001676 -8.882579748253951e-14 0
3.000000000008611 3.03805781006658e-12 0
2.999999999999961 -6.485685542538372e-14 0
3.000000000000002 -1.153075916464628e-17 0
3.000000000000007 -1.218851425192027e-15 0
3.00000000000091 -1.080145385490463e-13 0
3.000000000002112 -7.119053118289904e-14 0
2.999999999999999 4.50661447093614e-16 0
2.999999999183847 4.467615765212093e-11 0
2.999999999997588 6.744497703070666e-14 0
2.999999999999986 1.728265385578886e-16 0
2.999998092845178 1.089158275739224e-07 0
3.000000002808108 -8.013791153068465e-11 0
3.000000000094866 -4.447660659637869e-11 0
2.999999999999959 5.529427535317147e-15 0
3.000000000000002 1.275885263689346e-15 0
2.999999995904015 -2.637398058988642e-10 0
2.999999999997777 -2.425592512331184e-13 0
2.999999999999873 7.305699371195782e-14 0
3.000000000003422 1.545418738052007e-13 0
3 -1.922642190638001e-16 0
3.000000000000002 -8.327294134706442e-17 0
3.000000000000004 -4.116229764649429e-14 0
2.999999998437963 2.225971704335517e-09 0
3.000000000000008 5.59488875849013e-15 0
3.000000000000001 -1.473319004531698e-17 0
2.999999999999987 2.109953552842623e-15 0
2.999999999948118 9.500741866931707e-12 0
2.999999999801249 -2.794908875286275e-12 0
2.999999999968427 -1.235458781374942e-13 0
3.000000015403559 -5.690992911600652e-09 0
2.999999972463794 1.192278098936746e-08 0
2.999999993673805 3.416744010766531e-09 0
3.000160347723122 -4.108926281507477e-06 0
2.996100061969486 0.0001438702244910032 0
3.000000009401417 -3.209957834422065e-10 0
2.999999468372851 7.481602710243069e-08 0
2.999999999816312 2.543080960543995e-10 0
2.999690501934715 -9.200765166272725e-05 0
3.000000059277609 8.850705136824601e-09 0
3.000000000281516 -1.961702130280603e-10 0
3.000000004632126 -3.148434566623612e-09 0
3.000000000689737 -6.621156456557288e-10 0
2.999974091019181 4.215387593772347e-08 0
2.999999513269903 -2.264727082435716e-08 0
3.000000159174359 -1.60197143836093e-09 0
2.999999999999394 -2.044003513368177e-09 0
3.000000000044424 5.974228899769763e-11 0
3.000000031908388 -1.070629313879534e-08 0
2.999948816441679 -3.169934113105478e-07 0
2.999999999949773 5.370905330007897e-11 0
3.000001285314307 1.512883599863067e-07 0
2.999989107176014 1.212137589173073e-06 0
3.000005046354949 -8.293111256930512e-07 0
2.99999867095466 2.722324498636526e-07 0
3.000005417138214 -8.018724397980501e-07 0
2.999951055028326 -1.101555102588503e-07 0
3.021261125412702 0.0001979147075294042 0
3.010937262001667 -0.0002099094030793361 0
3.00000004528696 -2.13389413573235e-07 0
2.999999999973334 1.535722125529954e-11 0
2.999994528650435 8.010638023266275e-06 0
3.000012545383493 -3.222980418948989e-05 0
2.999985340363238 1.403346195813877e-06 0
2.999968212576552 2.712861701667256e-07 0
3.000000056804722 4.106455169935752e-07 0
2.934331029442344 0.01949891798925563 0
3.000001844812424 -1.112111112302861e-06 0
3.000000022272674 1.840964864509858e-08 0
3.000000045173379 -1.894333325522942e-08 0
3.000000000356319 -8.280231871120747e-09 0
2.999997999496046 3.114951991006198e-07 0
3.000000000022071 -1.844841162611115e-11 0
3.000075570607502 -3.298383527348836e-05 0
3.000003806471852 -2.16197879116581e-05 0
2.999998003340891 0.0001173088232964303 0
3.000126112963322 -7.820338497862127e-06 0
2.999982770234785 4.266148624735353e-07 0
2.999999999996808 2.668077431602387e-12 0
2.999999999871731 7.226965278120087e-11 0
3.000000321670895 -2.100530289950822e-08 0
2.999999907540203 5.376455893695222e-09 0
2.999999959908273 1.304391580651644e-09 0
3.000000026074047 -1.308519870188138e-09 0
3.000000007826608 -3.441417588871564e-10 0
2.999999992961085 3.164603430152563e-10 0
2.999999999758612 5.320239226451858e-11 0
3.000000001423731 -8.143580779159093e-11 0
2.999999999474474 1.549382910523084e-12 0
2.999999999919448 1.745592685113615e-11 0
3.000000000174322 -3.773868188555054e-12 0
2.999999999953239 -2.239651926605798e-12 0
2.9999999999789 1.158422715734267e-12 0
3.00000000001529 -1.103026172806329e-13 0
2.999999999997297 -1.231219385641539e-13 0
2.999999999998485 1.531775142668495e-13 0
3.000000000001665 -6.156585710812351e-14 0
2.999999999999616 -4.174963656180359e-14 0
2.999999999999689 4.472091717560483e-14 0
3.000000000000183 1.811077547342544e-15 0
3.00000000000001 -1.705140023449034e-14 0
2.999999999999967 4.087136263648482e-15 0
3.000000000000009 4.378021433552903e-15 0
3 -2.504583155476356e-15 0
2.999999999999999 -6.493464325099562e-16 0
3.000000000000001 8.547077700327667e-16 0
3 -1.590431630321725e-16 0
3.000000000000001 -1.512342264527323e-16 0
3 1.567697731466145e-16 0
3 1.740952086818956e-16 0
3 -1.519738093107082e-16 0
3.000000000000001 -2.364200571254327e-16 0
3 4.131606926655829e-16 0
3 2.278554239341454e-16 0
3.000000000000002 -1.112334228410686e-15 0
3.000000000000001 -4.725785821294274e-16 0
2.999999999999995 2.048568316252934e-15 0
3.000000000000003 -5.932471005746105e-16 0
2.999999999999997 -2.734971006252914e-16 0
2.999999999999987 5.732532859473436e-15 0
3.000000000000053 -1.736186714298341e-14 0
3.000000000000029 -2.058772548995673e-14 0
2.999999999999832 8.239441218441912e-14 0
2.999999999999994 3.499331624813945e-14 0
3.000000000000227 -2.083188739215689e-13 0
2.999999999999813 2.364307445392918e-14 0
3.000000000000407 1.789291738754174e-13 0
3.000000000000575 -3.239263810111971e-13 0
2.999999999997209 9.134751561353863e-13 0
2.999999999999648 8.353303572860885e-13 0
3.00000000000529 -4.332847918891468e-12 0
2.999999999997527 -1.998363386457153e-13 0
3.00000000000334 6.536964147835101e-12 0
3.000000000006417 -4.445877833406574e-12 0
2.999999999965929 1.001931947770548e-11 0
3.000000000002227 1.040907589523419e-11 0
3.00000000003651 -5.89732246964602e-11 0
2.999999999969698 3.946408063699106e-12 0
3.000000000105769 5.69639573761817e-11 0
3.000000000013759 -5.302515153856007e-11 0
2.999999999777897 1.89563947595739e-10 0
3.000000000104639 4.003420459511484e-11 0
2.999999999718692 -4.340537750489667e-10 0
2.999999999939714 1.665569000412322e-10 0
3.000000000730619 -3.769653797510017e-10 0
2.999999999671627 -2.011148325606358e-10 0
3.000000000982814 1.544850470527151e-09 0
2.999999999999669 -5.387766797850238e-10 0
2.999999998747557 1.489131736894285e-09 0
3.000000000784063 3.066703116727515e-10 0
2.999999996762736 -3.210508279943392e-09 0
3.000000000838995 1.610113383452296e-09 0
2.999969319698101 1.897836053739665e-07 0
3.000109823433348 6.736717006147579e-06 0
2.999999992512478 5.878124159646695e-09 0
3.000000007034321 -3.65623405606859e-09 0
3.000013958659236 -1.987318466448546e-06 0
2.999915343299002 1.490959597545714e-05 0
3.000293553787684 -8.068576647478099e-06 0
2.999999998340889 -6.809674095328022e-09 0
3.000000000026422 1.281974196865113e-09 0
3.000000011007161 1.685986722151885e-08 0
3.000000371800007 -6.539457003428488e-08 0
3.000238480646225 -1.090949196597758e-06 0
3.000119635952525 8.261487848603185e-06 0
2.999956288180522 -4.342238244467949e-05 0
3.000295096445607 4.498826866933784e-06 0
2.999948430932392 -1.854712214100522e-07 0
3.000067279428013 -2.498076065801072e-06 0
2.999972565716131 6.756314375323239e-07 0
2.999950333286004 -1.93751005985504e-06 0
3.000001508164492 1.311398786529501e-06 0
2.999960646553515 7.301561166462293e-08 0
3.000006073502251 -4.730708500880335e-08 0
3.000227226026456 -1.638911096553715e-06 0
3.000001535108877 -2.687427957394136e-07 0
2.99999875927867 -1.134236213325603e-08 0
2.999999627056133 2.235670743979119e-07 0
3.000000780220373 -8.902560424093035e-07 0
2.999999984510639 6.330611270102761e-09 0
2.999999999876347 5.123415846236731e-11 0
2.999999800492966 -5.220142963292098e-09 0
2.999999999999972 1.552750174335978e-14 0
2.994808080688597 -0.003011246991422261 0
2.999999382644778 3.554715575435084e-08 0
3.000000316088407 1.324263660369339e-08 0
3.00000019035032 -3.451843524731135e-09 0
2.99999991686292 -4.202017087764179e-09 0
2.999999951213371 -3.281623051516398e-11 0
3.000000022568194 8.371875520390818e-10 0
3.000000010263351 1.841963813385914e-11 0
2.999999993293886 -1.783836694128678e-10 0
2.999999998749349 7.039134775623413e-12 0
3.000000001740964 4.410500879863269e-11 0
2.999999999667442 -6.970282667899996e-12 0