<?xml version="1.0"?>
<VTKFile type="UnstructuredGrid">
  <UnstructuredGrid>
  <Piece NumberOfPoints="1224"  NumberOfCells="2290">
    <Points>
      <DataArray type="Float64" NumberOfComponents="3" format="ascii">
0 0 0
0.6 0 0
0.6 0.2 0
3 0.2 0
3 1 0
0 1 0
0.05454545454535233 0 0
0.1090909090906768 0 0
0.1636363636359771 0 0
0.2181818181812728 0 0
0.2727272727265793 0 0
0.3272727272720317 0 0
0.3818181818176247 0 0
0.4363636363632168 0 0
0.4909090909088285 0 0
0.5454545454544089 0 0
0.6 0.03999999999991203 0
0.6 0.07999999999979179 0
0.6 0.1199999999997886 0
0.6 0.1599999999998948 0
0.6510638297871261 0.2 0
0.7021276595742618 0.2 0
0.7531914893613819 0.2 0
0.8042553191485237 0.2 0
0.8553191489356438 0.2 0
0.9063829787228289 0.2 0
0.957446808509926 0.2 0
1.008510638297009 0.2 0
1.059574468084092 0.2 0
1.110638297871174 0.2 0
1.161702127658257 0.2 0
1.21276595744534 0.2 0
1.263829787232422 0.2 0
1.314893617019505 0.2 0
1.365957446806588 0.2 0
1.417021276593671 0.2 0
1.468085106380754 0.2 0
1.519148936167923 0.2 0
1.570212765955006 0.2 0
1.621276595742088 0.2 0
1.672340425529171 0.2 0
1.723404255316254 0.2 0
1.774468085103337 0.2 0
1.825531914890624 0.2 0
1.876595744677951 0.2 0
1.927659574465349 0.2 0
1.978723404252714 0.2 0
2.029787234040074 0.2 0
2.080851063827477 0.2 0
2.131914893614798 0.2 0
2.182978723402204 0.2 0
2.234042553189523 0.2 0
2.285106382976928 0.2 0
2.336170212764247 0.2 0
2.387234042551653 0.2 0
2.438297872338975 0.2 0
2.489361702126377 0.2 0
2.540425531913739 0.2 0
2.591489361701102 0.2 0
2.642553191488421 0.2 0
2.693617021275827 0.2 0
2.744680851063146 0.2 0
2.795744680850551 0.2 0
2.84680851063787 0.2 0
2.897872340425276 0.2 0
2.948936170212618 0.2 0
3 0.2533333333332341 0
3 0.3066666666664725 0
3 0.3599999999996274 0
3 0.413333333332804 0
3 0.4666666666659806 0
3 0.5199999999991571 0
3 0.5733333333323336 0
3 0.6266666666656895 0
3 0.6799999999991551 0
3 0.7333333333326146 0
3 0.7866666666660802 0
3 0.8399999999995775 0
3 0.8933333333330373 0
3 0.9466666666664969 0
2.949152542373491 1 0
2.898305084746983 1 0
2.847457627120474 1 0
2.796610169493702 1 0
2.745762711866469 1 0
2.694915254239208 1 0
2.644067796611963 1 0
2.593220338985156 1 0
2.542372881358647 1 0
2.491525423732018 1 0
2.44067796610481 1 0
2.389830508477549 1 0
2.338983050850287 1 0
2.288135593223026 1 0
2.237288135595765 1 0
2.186440677968504 1 0
2.135593220341243 1 0
2.084745762713982 1 0
2.033898305086721 1 0
1.983050847459614 1 0
1.932203389832729 1 0
1.881355932205844 1 0
1.830508474578958 1 0
1.779661016952073 1 0
1.728813559325189 1 0
1.677966101698303 1 0
1.627118644071418 1 0
1.576271186444533 1 0
1.525423728817648 1 0
1.474576271190575 1 0
1.423728813563314 1 0
1.372881355936053 1 0
1.322033898308791 1 0
1.27118644068153 1 0
1.220338983054269 1 0
1.169491525427008 1 0
1.118644067799747 1 0
1.067796610172485 1 0
1.016949152545224 1 0
0.9661016949179628 1 0
0.9152542372907018 1 0
0.8644067796634407 1 0
0.8135593220361792 1 0
0.7627118644089181 1 0
0.7118644067816566 1 0
0.661016949154396 1 0
0.6101694915271345 1 0
0.5593220338998739 1 0
0.5084745762726124 1 0
0.4576271186453518 1 0
0.4067796610180903 1 0
0.3559322033908292 1 0
0.3050847457635677 1 0
0.2542372881363066 1 0
0.2033898305090456 1 0
0.1525423728817841 1 0
0.101694915254523 1 0
0.05084745762726151 1 0
0 0.9473684210524125 0
0 0.8947368421048248 0
0 0.8421052631576025 0
0 0.7894736842105994 0
0 0.7368421052635962 0
0 0.6842105263165927 0
0 0.6315789473695894 0
0 0.5789473684225861 0
0 0.5263157894755828 0
0 0.4736842105282874 0
0 0.4210526315806998 0
0 0.3684210526331123 0
0 0.3157894736855248 0
0 0.2631578947379374 0
0 0.21052631579035 0
0 0.1578947368427625 0
0 0.1052631578951749 0
0 0.05263157894758741 0
0.4374856279758046 0.955462795473483 0
0.625531914893563 0.2394317949808221 0
0.7891616249544176 0.9557759867023439 0
2.570562443351098 0.9559758769411787 0
2.364406779663917 0.9559648099769389 0
2.161016949154874 0.9559648099769389 0
1.957627118646171 0.9559648099772646 0
1.756856606547665 0.9560078743553572 0
1.553415402058453 0.9561420672712786 0
1.347457627122422 0.95627738856474 0
1.144067796613377 0.9563034567995272 0
0.04146670856173688 0.5498854761242812 0
0.9828861012149002 0.2442383967812095 0
2.465390809289578 0.2421522008426663 0
2.259572257543314 0.243586373321511 0
2.055319178697841 0.24363095694403 0
1.851066099915384 0.2436741865527954 0
1.646810778591931 0.2437170671454607 0
1.442550972205278 0.2437587738062726 0
1.238275543433999 0.2442249255777628 0
0.5808319854219957 0.2417757800606361 0
0.6039807146029165 0.2785115072887754 0
2.951522810440164 0.5995349944823752 0
0.5591131416216563 0.2791940688436214 0
0.5817690965011905 0.3180386921514113 0
0.5363223429032008 0.3181181454258206 0
0.5590799034518541 0.3577335228902347 0
2.671507320584846 0.2416532643303031 0
0.5129751095268966 0.3576683284772433 0
0.5360042291720796 0.3976917483469583 0
0.5824744072527975 0.3977458985417416 0
0.5593202208963615 0.4382323507424581 0
0.6062221806132498 0.4382172989803606 0
0.5831398502988122 0.4790536480492864 0
0.630245509211025 0.4792447281197085 0
0.5373735766893435 0.4817209888486334 0
0.2780994584865757 0.9660670791366374 0
0.9407829849899363 0.9559852449915113 0
0.6069171020766708 0.5203953730037822 0
0.6544691944766102 0.5205851219036783 0
2.724115018794794 0.9563165682871465 0
0.04341732373162228 0.2894490564426765 0
0.6304562046384772 0.5622881188475496 0
0.6786259291441818 0.5621981517123112 0
0.03938236249337418 0.7091098825652095 0
0.2999999999993055 0.04723774929726795 0
0.7024556039582556 0.5200372393771872 0
0.726826368578132 0.562505099575485 0
0.6545296629344706 0.6041261864689124 0
0.6061411599039735 0.6041581669226386 0
2.954333097254252 0.4393531299125908 0
0.7512905139641642 0.5199435586712576 0
0.7757938242112172 0.5624873891767795 0
0.4902278874550028 0.3174350849704655 0
0.4661669324669476 0.3576870257641042 0
0.8003371868304782 0.5195844107098163 0
0.8251782158071723 0.5621174250913318 0
0.6300572939290072 0.6460588488486728 0
0.581677101888915 0.6462390077748084 0
0.7994632498085218 0.6067218912904607 0
0.850068894442807 0.6047738158182728 0
0.8747482025846163 0.5617915498272615 0
0.8998102571129438 0.6045430073239006 0
0.924588798996443 0.5614360364847856 0
0.9497125983499418 0.6046345614192383 0
0.9744389394813738 0.5613114208485291 0
0.9997656958801404 0.604758732930365 0
1.024028015453996 0.5597386087889248 0
1.050046148741532 0.6042836632406788 0
1.075213347289947 0.5607219500906248 0
1.100604808237692 0.6043040651294929 0
1.125727120818654 0.5598592244124957 0
1.151165990249003 0.6040638744783449 0
1.176319565514503 0.5595216793632644 0
1.201793840633129 0.6038781229769293 0
1.226960854257978 0.5600604284234054 0
1.252470704079807 0.6038664424080111 0
1.277198987313166 0.55874807111347 0
1.303148970446812 0.6035341865995129 0
1.328130525802366 0.5586520846649797 0
1.353966012915828 0.6034054551655909 0
1.379205474149696 0.558835304845746 0
1.404820923589671 0.6032503772964327 0
1.430092956912838 0.5587079795953892 0
1.455686300628245 0.6030926920218221 0
1.480963489515269 0.5580480170404921 0
1.506562983627252 0.6028436706904448 0
1.531847734917255 0.5577680566445021 0
1.557453558526421 0.6026435181305781 0
1.582745756648754 0.5575726351194972 0
1.608358176126191 0.6024617369905624 0
1.633656322435163 0.5573842056888257 0
1.659277805706528 0.6022873884346892 0
1.684577462424181 0.5572075399874397 0
1.710203504633815 0.6021111834258887 0
1.735506494091908 0.5570246051384745 0
1.761134606493805 0.6019307913070558 0
1.786441498808711 0.5568475628142857 0
1.812072359676459 0.6017522495250318 0
1.837381834584306 0.5566653603575672 0
1.863017119880456 0.601574020443024 0
1.888326681794851 0.5564884669211013 0
1.913963858781491 0.601395113412113 0
1.939274704592935 0.5563067813822595 0
1.964908406083961 0.6012129143420911 0
1.990224566339525 0.5561292537946573 0
2.015859329864652 0.601032757987411 0
2.041177190815608 0.5559477304122714 0
2.066818109147928 0.600855564813206 0
2.09213259478423 0.5557710179709322 0
2.117774443326183 0.6006760179252703 0
2.143088896138059 0.5555900146741853 0
2.168729305797513 0.6004921726308964 0
2.194045774061603 0.5554125217101814 0
2.219686577151481 0.6003111949874665 0
2.245003702950199 0.5552312296013228 0
2.270641766736839 0.6001298880828497 0
2.295962173634055 0.5550546947866846 0
2.321601310982481 0.599950595338254 0
2.346923922781879 0.5548708301001631 0
2.372568004594504 0.5997713467128002 0
2.397895756972162 0.5547000681173012 0
2.423546697517365 0.5996004731097838 0
2.448884659670238 0.5545095609010697 0
2.474538141419978 0.5994220729206983 0
2.499902931415869 0.5543494429014709 0
2.525546234724433 0.5993228147833797 0
2.550973655834774 0.5541346321759457 0
2.576685338327378 0.5992395038842441 0
2.602182482443039 0.5540180644105763 0
2.958944511946492 0.7598964409357507 0
2.628014314012249 0.5990918128353608 0
0.4429170888396284 0.3159793431387367 0
0.4184631156771032 0.357715436029677 0
0.3946070818022522 0.3157219358498637 0
0.3697276561976696 0.3576135465858128 0
2.449044355814981 0.643990885448769 0
2.24531935830005 0.6444881680698032 0
1.024857369602972 0.6487487015028032 0
2.041498164113345 0.6452136474256573 0
1.837701628146142 0.6459229900926835 0
0.3455853078837237 0.3150377509381005 0
0.3204780172155196 0.3574251905568473 0
0.3449438693484468 0.4002519798591844 0
1.633970683060678 0.6466170330762969 0
1.227333380683899 0.6479317947648683 0
1.430444030483603 0.6473399689389928 0
0.875196942148915 0.6483605753517908 0
0.6057010339261732 0.6883083412871458 0
0.5571396249147901 0.6885103796531055 0
2.653543252321963 0.5527758280498023 0
1.099471497978971 0.5148848291986879 0
2.602427017093663 0.6438096025956825 0
2.653851606946175 0.6437140715169269 0
1.353138019780104 0.5138574114565649 0
1.556762689169365 0.5115839513085039 0
1.760509743411542 0.5109012431757174 0
1.964341412665395 0.510388685431229 0
0.2953909602266698 0.4001745965167012 0
[...]
    <PointData>
      <DataArray type="Float64" NumberOfComponents="3" Name="Velocity" format="ascii">
3.000000161282966 0 0
0 0 0
0 0 0
3.240717781698539 0 0
3.240477835024806 0 0
3.000000000218014 0 0
2.999999909614807 0 0
2.999998816485929 0 0
3.000006937395683 0 0
3.000142145730906 0 0
2.999655909347592 0 0
2.976109290482897 0 0
2.740852749339659 0 0
1.923502446381148 0 0
0.8341853808468763 0 0
0.1959177432926168 0 0
0 0.1292500849746318 0
0 0.2382149578661242 0
0 0.3727269565437772 0
0 0.534809966791002 0
1.388271686655647 0 0
1.931226999556265 0 0
2.229461109030701 0 0
2.451440671317325 0 0
2.609389120144938 0 0
2.741851837357805 0 0
2.832923547329272 0 0
2.896316088674467 0 0
2.938368654805695 0 0
2.964716038400549 0 0
2.980259027002443 0 0
2.989918391364124 0 0
2.995188141656327 0 0
2.99773986589253 0 0
2.99898172680835 0 0
2.999619594269876 0 0
2.999871726625348 0 0
2.999967065352406 0 0
2.999996494538737 0 0
3.000001121623231 0 0
3.00000086111314 0 0
3.000000139684696 0 0
2.99999995388606 0 0
2.999999980699022 0 0
3.000000001324974 0 0
3.00000000108901 0 0
2.999999999613863 0 0
3.000000000084951 0 0
2.999999999982144 0 0
3.00000000003971 0 0
2.999999999975964 0 0
2.999999999887767 0 0
3.000000000175031 0 0
3.000000000107527 0 0
2.999999999488177 0 0
3.000000000656349 0 0
2.999999998958364 0 0
3.000000011625968 0 0
2.999999971916052 0 0
2.999999479515801 0 0
2.999998963779552 0 0
3.000012973537354 0 0
3.000186510316292 0 0
3.001372054844779 0 0
3.008886760244992 0 0
3.057822983377029 0 0
3.241642389465837 0.001745853740193424 0
3.231509084650447 0.001193601837177581 0
3.233002884723324 0.0009898249053643957 0
3.233331471460775 9.544070545892266e-05 0
3.236233371478662 -0.000465077266657962 0
3.238122871140606 -0.0006915879792542048 0
3.235584993976263 -0.0003660049285735087 0
3.234561624270208 -0.0004917498027361242 0
3.238226751532558 -5.904749598590214e-05 0
3.236284116021622 -2.871708253776881e-05 0
3.237074821028499 -0.0003101891704358119 0
3.233462227682387 -0.0007717392820711874 0
3.230669744159199 -0.001833041513084794 0
3.241531752824837 -0.0013487452195384 0
3.05308165688477 0 0
3.009451724130417 0 0
3.001440542054494 0 0
3.000187938327308 0 0
3.000017097067754 0 0
2.999999954336888 0 0
2.999999577031111 0 0
2.999999949045946 0 0
3.00000000868114 0 0
2.999999999370794 0 0
3.000000000586443 0 0
2.999999999487792 0 0
3.000000000138956 0 0
3.000000000138739 0 0
2.999999999905214 0 0
2.99999999998452 0 0
3.000000000022438 0 0
3.000000000005765 0 0
2.999999999990008 0 0
3.000000000003801 0 0
2.999999999994178 0 0
3.000000000013988 0 0
2.999999999976669 0 0
3.000000000026882 0 0
2.999999999998206 0 0
2.999999999930601 0 0
3.000000000060522 0 0
3.000000000266709 0 0
2.999999999634687 0 0
2.999999998600195 0 0
3.000000001304708 0 0
3.000000007991418 0 0
3.000000012928095 0 0
3.000000009230523 0 0
2.999999992919694 0 0
2.999999965486605 0 0
2.999999926063382 0 0
2.999999898800998 0 0
2.999999890348584 0 0
2.99999989501192 0 0
2.999999997119813 0 0
3.000000077951637 0 0
3.00000009290489 0 0
3.000000061432309 0 0
3.000000029855638 0 0
3.000000008184697 0 0
2.999999999525289 0 0
2.999999997861023 0 0
2.99999999944747 0 0
3.000000000671406 0 0
2.999999999729754 0 0
3.000000000062527 0 0
2.999999999986985 0 0
3.000000000045839 0 0
2.999999999991084 0 0
3.000000000109803 0 0
3.00000000016299 0 0
3.000000000195885 0 0
2.999999999842709 0 0
3.00000000016919 0 0
2.999999999369728 0 0
3.000000000242109 0 0
3.000000000003765 0 0
3.000000000515179 0 0
3.000000001490597 0 0
3.000000002055029 0 0
2.999999998907964 0 0
2.999999995562681 0 0
2.999999994431429 0 0
3.000000000255653 0 0
3.000000004550703 0 0
3.000000014609644 0 0
3.000000034318359 0 0
3.000000064652063 0 0
3.000000074070048 0 0
3.000000081891572 0 0
2.999999999905385 6.112772139454646e-10 0
1.320264015771529 0.5885430388162992 0
3.000000061205221 -1.897231988869341e-07 0
2.999999989343207 2.994495847924565e-09 0
3.000000000130276 -9.798672497809565e-12 0
2.999999999984884 -5.255180714900133e-12 0
3.000000000008277 -4.086674551371008e-14 0
2.999999999968774 -2.457002377935551e-11 0
2.999999999191624 -8.004175075470574e-11 0
3.000000002946759 -4.379051414007297e-08 0
2.999999801746183 6.082267013051678e-09 0
3.00000000037369 5.1087888226523e-10 0
2.878749440206906 0.0448153424012506 0
2.999999998707377 -7.617850702656357e-11 0
3.000000000018943 -3.591303342183983e-11 0
3.000000000010024 3.809329974588841e-12 0
2.999999994858417 -1.359264156535347e-09 0
3.000001106078286 -1.776185737672692e-07 0
2.999823097158827 -6.081071153875848e-05 0
2.993921908619127 0.001429507092492523 0
1.171539266633643 0.8028360884125193 0
1.71380819902139 0.7849266456410229 0
3.071423251548333 -0.000346491440225615 0
1.733156589616836 0.7496838792693722 0
2.105410923773339 0.6792085984875461 0
2.302010859520655 0.4778902324800757 0
2.532267515933445 0.3965164220303961 0
2.999999176181897 2.072108825901857e-07 0
2.725198009781523 0.2055296900048627 0
2.82680550409677 0.1550237078665861 0
2.713234787110915 0.2918987683959611 0
2.900730566780063 0.1038600557270703 0
2.836896153413844 0.1939070723115638 0
2.946821485773953 0.06366667712653981 0
2.913566957717109 0.1174373887706135 0
2.976060224519052 0.02610210146518348 0
3.000000000047132 -9.516600773863192e-11 0
2.999999461559497 1.333559330792521e-06 0
2.973436083295284 0.03590323619179338 0
2.956993698435054 0.06578781780646477 0
3.000006489300496 -1.223612007183313e-06 0
3.000000005232499 -6.195417835478489e-10 0
2.987604118758316 0.01871986476117177 0
2.979852686532047 0.03439938666882487 0
3.000000000165462 2.700845459721447e-10 0
2.995778095718442 0.000360910079925086 0
2.942211445223346 0.105513413352889 0
2.973146689975991 0.05515532031134981 0
2.994404146806499 0.009389176551203221 0
2.997120524715692 0.004373569484978284 0
3.082727922546015 -0.0002778741171365219 0
2.942183145955023 0.1292947859278822 0
2.972778846028945 0.07062656977893825 0
2.608819969714886 0.2371393481856356 0
2.889311812630945 0.07465874076990113 0
2.95278932941921 0.1324942393134567 0
2.978343766922903 0.07369317309206236 0
2.998722024146192 0.002143207933748791 0
2.999452727177864 0.0008445128661086738 0
2.988276700575399 0.03489127939977307 0
2.990910763900223 0.0377442118621401 0
2.986067401597216 0.06964795490122534 0
2.994796622025111 0.0353199880221599 0
2.993862458547081 0.06046856132830822 0
2.998496116128929 0.029958295696053 0
3.000122432150449 0.04839639005088089 0
3.001201796283974 0.02324973616832032 0
3.004083116159158 0.03591264815550655 0
3.002635626477245 0.01670281034825043 0
3.005481154902843 0.02375327081073799 0
3.002888099445586 0.01080880642985972 0
3.005199359057648 0.01480172725205493 0
3.002446432853141 0.006427466069460845 0
3.004026351792341 0.008347909598727795 0
3.001747061366546 0.003502983004779267 0
3.002646330842929 0.004209697769107551 0
3.001073570237783 0.001717400294440583 0
3.001545380856876 0.001937435497232875 0
3.00057232585935 0.0007493652640574174 0
3.000756741782294 0.0007596440907048759 0
3.000258917396905 0.0002836165866263279 0
3.000310143829334 0.0002497675522739187 0
3.000096360779278 9.098824651269448e-05 0
3.000104718777842 6.767863524717483e-05 0
3.000026370847391 2.276281632378974e-05 0
3.000026426729356 1.420443438419789e-05 0
3.000003944667985 4.109807077074033e-06 0
3.000003561164212 2.129823960527604e-06 0
2.99999939332029 4.050690847532105e-07 0
2.999999459310512 2.596989724000168e-07 0
2.999999388500377 -2.65670102380728e-08 0
2.99999949396189 6.557179518664602e-08 0
2.99999984128692 -2.620752750531821e-08 0
2.999999871182855 1.234674262383206e-08 0
3.000000000249645 -1.11454480856546e-08 0
3.000000003076654 -8.416836989577489e-09 0
3.000000012423297 -3.356097340278187e-09 0
3.000000008509145 -4.645502481435211e-09 0
2.999999998589278 1.381943677788385e-09 0
2.999999998687541 1.551379597462032e-09 0
2.999999999874761 -1.423434133352892e-10 0
3.000000000009227 -1.024073733801145e-10 0
3.000000000105025 -7.474120889759948e-11 0
3.000000000014485 -7.965822735905536e-11 0
2.999999999977318 4.576167178680907e-11 0
3.000000000003467 3.2015653490171e-11 0
3.000000000003807 -1.314631367153028e-11 0
2.999999999998452 -4.825024180721068e-12 0
3.000000000002056 2.763010888809164e-12 0
2.999999999992891 -6.635730054033899e-13 0
3.000000000003109 1.768158197673864e-13 0
3.000000000009374 -2.292481339880959e-12 0
2.999999999976046 3.718873740855397e-13 0
3.000000000027949 2.862229445991655e-12 0
2.999999999997283 -3.22994708701036e-12 0
2.999999999946226 2.114591811001145e-12 0
3.000000000107438 2.928788123418454e-12 0
2.999999999915858 -3.89207814422007e-12 0
2.99999999994581 3.871966786764553e-12 0
3.000000000243655 2.608731982567438e-13 0
2.999999999678137 -8.738227531933702e-12 0
3.000000000056982 3.28208307907043e-12 0
3.000000000592083 3.30958146969721e-12 0
2.999999999133074 -8.427948760702892e-13 0
2.999999999437677 -1.147207204563535e-11 0
3.000000003490856 -3.508321921123735e-11 0
3.000000004342377 -1.638809037646672e-11 0
2.99999999023151 1.059262675764974e-10 0
2.999999950755352 1.098302969365289e-09 0
2.999999837882102 3.178668251616802e-09 0
3.091990102014035 -0.0001014314491456351 0
2.999999717689848 5.854678070101136e-09 0
2.853647476357085 0.0801306570150427 0
2.969010799069162 0.01945518083124662 0
2.964600466613391 0.0177898775265948 0
2.993990703522919 0.003562772356761512 0
2.999999999176038 1.14254781796838e-11 0
2.999999999938035 -1.782157197944916e-12 0
3.000869320186114 0.009926810439400026 0
3.000000000004775 -7.332890433092735e-13 0
2.999999999462157 -1.263274785361454e-10 0
2.99574300695605 0.001974435002280735 0
2.999658825022804 0.0002061752901143716 0
2.999201495407508 0.0005667378211765363 0
2.999999824551694 -6.902943079081086e-08 0
3.000596855039604 0.001245034334513035 0
3.000016776215672 2.296856373665976e-05 0
2.99657040300603 0.0175703208826183 0
2.999757262773253 0.0004099897543517689 0
2.999917494088389 0.0001309434150909636 0
2.999999793487592 1.484699268790725e-08 0
3.008432736398847 0.02951014163296124 0
2.999999846491711 3.164431460713628e-09 0
2.999999799359054 -8.959066939750365e-09 0
3.000768687396045 0.0005663433498241541 0
3.000002737697631 5.355966723379885e-07 0
3.00000000249025 -8.301396401880006e-09 0
2.999999999981477 -3.513914946529843e-11 0
3.000007018638927 2.484864573391614e-06 0
2.999924725406984 6.826498679709394e-05 0
2.999999999973071 -3.546018841909999e-13 0
2.999999999672345 1.784460890784214e-12 0
2.999999948732662 3.843124531203767e-10 0
2.904597229449406 0.2193590890777271 0
2.994354814946202 0.09029035269520465 0
2.999999722807662 2.282325307641633e-09 0
3.000000689858099 -6.273293289420552e-08 0
2.999964567248783 6.121502840014679e-05 0
2.999918761906648 0.0001537257081882515 0
2.999991218501804 1.509352675502819e-05 0
2.999979876137412 3.225391939479714e-05 0
2.99999885140707 2.359443052884287e-06 0
2.999997296284262 5.200177923905376e-06 0
3.000000221748113 -9.268130048088884e-08 0
3.000000246916082 1.361967132335672e-07 0
3.000000154810777 -1.807963489646703e-07 0
3.000000263851754 -2.68788011589293e-07 0
3.000000028012746 -4.433699558901521e-08 0
3.000000060283349 -8.159074670849609e-08 0
0.1676339431329487 0.4312114662667545 0
2.83594366708981 0.07038520940250108 0
2.999999995312761 1.355181133153232e-09 0
3.000001939426792 1.716976153750295e-05 0
3.000733055513169 0.0001057245809495268 0
3.000006710047877 -3.026838579193511e-06 0
2.572604829611203 0.1494711169545097 0
2.999999995310754 -1.376247891226754e-09 0
2.999999771389839 -3.517194148126826e-09 0
2.99999985572394 3.462614956079368e-09 0
3.00000473555815 -1.637460085898601e-07 0
3.000020221693005 -8.784370597564883e-07 0
2.142201308948139 0.2545729324365007 0
2.999996912872858 5.739148070306244e-06 0
3.000046923350599 -3.546560073222702e-06 0
3.000000000976744 -1.243120283825144e-09 0
3.000000003873536 2.590366244976342e-09 0
2.998556025404494 0.0004167018143501658 0
3.000103238129336 -1.295827350748043e-05 0
3.000000000203559 2.35616280421759e-11 0
3.000000050954902 -1.276418906225243e-07 0
3.000000000012103 -2.18902575587167e-12 0
2.999999999948878 4.349528781696421e-11 0
3.000000014574071 -1.98864610593155e-09 0
2.9999991359723 4.298668509344901e-07 0
2.999999999977266 1.04440973255271e-11 0
2.999999999685329 2.73149983247109e-11 0
3.000000000172717 -5.766891634917532e-12 0
2.999990177604045 -8.897103437101354e-06 0
2.999999999710249 2.030156427627483e-08 0
2.957402050730166 0.01541649433772124 0
2.998738487711096 -1.464696983443254e-05 0
3.000155246405241 0.0002335984485809891 0
3.000000000008929 6.307036628605456e-13 0
3.000000004587483 2.796572102018724e-09 0
2.999999998739165 2.063991333387924e-11 0
2.99999968208512 9.140576832870175e-07 0
2.999999934840426 -1.146308980070429e-07 0
3.000000000016688 2.537195760419289e-11 0
3.000000000134275 9.782585036460221e-11 0
3.000000000006107 3.754052808819148e-12 0
2.999999999939911 -3.019641954439935e-11 0
3.00121937668675 0.004296348955006178 0
2.999999999991285 -7.981677050276996e-12 0
2.999999999620273 1.445567289043658e-09 0
2.999999644844205 1.421065000148925e-07 0
3.000095370900524 3.48698428532198e-05 0
3.000000000258401 8.750722737402871e-12 0
3.000000000103906 -2.878122137035559e-13 0
3.00514468505104 0.008814545545729382 0
3.000000000340315 -4.579658114999793e-09 0
3.000000144860561 7.253407536903607e-07 0
3.000723515043113 -5.999748898527397e-05 0
2.445664863499424 0.02100132123600878 0
2.999999999528925 6.282754384973327e-12 0
3.000009481942152 -4.1385365192864e-06 0
3.000000005890473 -1.683941848628421e-08 0
2.631870521868557 0.4270113590847734 0
3.000001558195705 -7.775788638407053e-07 0
2.999999998534101 2.394681430049043e-09 0
3.000000107644716 -1.3324396991086e-07 0
2.999999990662227 -3.323261252646943e-09 0
3.000064029984189 -1.557541111767728e-06 0
2.999999734595191 3.597285099062176e-09 0
2.999999959730332 1.585184331295801e-09 0
3.000000138173681 -1.157250293376567e-07 0
3.000000007685325 -2.33401081759764e-08 0
2.9999587016779 6.266701499825432e-05 0
3.000197497134121 -7.638043357350078e-06 0
2.999999999917047 8.738876792846293e-10 0
2.999298775906649 0.0006067939660143361 0
2.999936469886773 9.409111955275462e-05 0
3.000096615527454 -1.624085695726233e-05 0
3.000024965061876 -7.148564361379413e-06 0
3.000018944081264 -3.177322968482141e-07 0
3.000186981044339 -1.32854252099229e-06 0
3.082631963242541 0.00140520118583611 0
3.066761661278679 -0.001251984901298223 0
2.999930172899231 7.616947036024404e-05 0
3.000000000015434 -7.350297489993515e-10 0
2.930412003485377 0.2039305474512585 0
2.864305519439993 0.3042285973152186 0
2.907714978989972 0.2601281611649659 0
3.000072483951115 -2.729867021038293e-06 0
2.99781269553527 0.004073763961465467 0
1.35617251352368 0.7289005662899 0
2.999532944944201 0.0004832272562648238 0
3.000000894589069 -4.475582118650392e-07 0
2.99999998101578 -1.053856187926578e-08 0
3.000000130351621 -8.122300014839193e-08 0
3.000010751939762 -3.444118827087989e-06 0
2.999999999585774 -3.451432094345654e-11 0
2.831976946751354 0.3352929948534209 0
2.88591108935429 0.2682142356749863 0
2.759474517706775 0.4063557131198294 0
3.000614503713998 -2.289231586165974e-05 0
3.000226144158219 -2.685447889423455e-06 0
3.000000000189099 -1.945951392494439e-10 0
3.00000000065675 -1.042193870311602e-09 0
2.999999865115613 4.113951186060099e-09 0
2.99999999501592 6.587850714207315e-10 0
3.000000004933906 -6.890743177823814e-11 0
3.000000002630193 -1.639956200999303e-10 0
2.999999999067501 9.164193088751015e-12 0
2.999999999367141 3.980344387424169e-11 0
3.000000000663715 -1.147081362434768e-11 0
2.999999999888545 -3.747083998276979e-12 0
2.999999999744247 -8.202993127151013e-12 0
3.000000000257681 1.967916959561928e-11 0
2.99999999989049 -4.921572688746018e-12 0
2.99999999994964 5.634295094307738e-12 0
3.000000000118788 1.566113749863939e-12 0
2.999999999950155 -3.178078535974599e-11 0
2.999999999993161 1.979439675783827e-11 0
3.000000000016581 1.275732354107245e-11 0
2.999999999978389 -1.628477915448327e-11 0
3.000000000005447 8.539889833914996e-12 0
3.000000000008118 -3.847279810166649e-13 0
2.999999999995368 -7.414164580868854e-12 0
2.999999999998801 5.272489801543476e-12 0
3.000000000009213 -1.345736853356455e-13 0
2.999999999994253 -1.09726133714936e-12 0
2.999999999983201 1.222849612725582e-12 0
3.000000000021037 5.986196307065199e-13 0
3.000000000020549 3.944852448592683e-12 0
2.999999999964674 -1.366935836439517e-11 0
2.999999999980153 -1.725606468061932e-11 0
3.000000000007585 4.904214646362691e-11 0
2.999999999963726 4.754683028177951e-11 0
3.000000000250511 -8.253181618432858e-11 0
3.000000000296121 -4.814656961807964e-12 0
2.999999999000907 -3.265500384614103e-10 0
2.999999999429087 -5.335391219543765e-10 0
2.999999999878626 2.331396988957419e-09 0
2.999999998434683 1.36052864080049e-09 0
3.000000012014732 4.745236934572767e-09 0
3.000000005611739 5.962760607978648e-09 0
3.000000020470793 -1.126180477086984e-08 0
3.000000019529167 3.97825651329803e-10 0
2.999999976628693 -8.069827604513221e-08 0
3.000000011533149 -4.142735298969264e-08 0
2.999999791417837 -2.446823449646711e-07 0
2.999999932310418 -1.578702644255031e-07 0
2.999999433543817 -3.593560817451919e-07 0
2.999999728005513 -3.023675862792905e-07 0
2.99999920771142 3.749530834151285e-07 0
2.99999950348757 -2.440730449883993e-08 0
2.999999943478934 4.293523737240735e-06 0
2.999999546448344 1.712424391143534e-06 0
3.000003090568875 1.669510708773645e-05 0
3.000000188914733 7.119887718915982e-06 0
3.000010032304315 4.646179040439139e-05 0
3.000001594745643 1.927285180252632e-05 0
3.000020510732542 0.0001043762163385148 0
3.000003538505615 4.153905511701396e-05 0
3.000031678981632 0.000200242421877785 0
3.000005365808994 7.705834460236356e-05 0
3.000037895895938 0.0003410622303490007 0
3.000005048044134 0.0001316638874935789 0
3.000028213512046 0.0005367402640540482 0
2.999996766861254 0.0002012340242805023 0
2.999984839362808 0.0007508347063777657 0
2.999976293485225 0.0002652787096178095 0
2.99990486772169 0.0009251612882294737 0
2.999949647558426 0.0002866797765779828 0
2.999814646637044 0.0009575809475947835 0
2.99994164708062 0.0002118036510521288 0
2.99980130582555 0.0006721864939345649 0
2.999957466760093 0.0001242714949952535 0
2.999856242917887 0.0003945519277529271 0
2.999974707454775 6.728516544753209e-05 0
3.000064054688854 -1.422155663684068e-06 0
3.000542363330692 -6.6270696404367e-06 0
3.000000182063108 -1.931531034196813e-07 0
2.999999985019587 -7.793620230822864e-09 0
3.0001971860885 2.198428464736575e-05 0
2.995330087800847 0.001183220863858831 0
3.001428075241842 -3.742249538237733e-05 0
2.999913379649159 0.0002137678817559719 0
2.99998740705524 3.171823678600307e-05 0
2.99955838915681 0.001113678418811526 0
3.000000108560769 -2.868327290383063e-07 0
3.001716646379321 -1.870856318686094e-05 0
3.000599063504681 8.279052470806631e-07 0
3.003919472381008 1.25620847122199e-05 0
3.001492410173148 -4.97067417500836e-05 0
3.000212567947361 -5.66598831058293e-06 0
3.000603327926116 -3.499708451103657e-05 0
3.00007608144983 -3.768707350757838e-06 0
3.00024216579752 -1.01920832529637e-05 0
3.000024776539358 -6.532001097902871e-07 0
3.000080712884032 2.129212913100412e-06 0
3.000005935047579 4.704894059339883e-07 0
3.000784238754332 1.074119134780016e-05 0
3.000000841314755 8.954383176770396e-09 0
2.999999716188881 4.457939133620871e-08 0
2.99995585164234 5.702239414381756e-05 0
2.999717034573882 0.0003339930484286814 0
2.999999956316454 1.564216851347306e-08 0
2.999989616125592 3.015219145696033e-05 0
2.999999544810612 5.362866159684967e-08 0
3.0000000001149 2.730600490187151e-10 0
0.390867022350629 0.09599856912020821 0
2.999999684453594 8.306289058428698e-10 0
2.999999840153579 -7.450843199431789e-09 0
2.999999950895269 -2.186878403102273e-09 0
2.999999994817126 -1.899967284245208e-09 0
3.000000005026299 -1.047909824651684e-10 0
3.000000003023023 3.260088870488715e-10 0
2.999999999260587 4.074180329439002e-11 0