<?xml version="1.0"?>
<VTKFile type="UnstructuredGrid">
  <UnstructuredGrid>
  <Piece NumberOfPoints="1224"  NumberOfCells="2290">
    <Points>
      <DataArray type="Float64" NumberOfComponents="3" format="ascii">
0 0 0
0.6 0 0
0.6 0.2 0
70 0.2 0
70 1 0
0 1 0
0.05454545454535233 0 0
0.1090909090906768 0 0
0.1636363636359771 0 0
0.2181818181812728 0 0
0.2727272727265793 0 0
0.3272727272720317 0 0
0.3818181818176247 0 0
0.4363636363632168 0 0
0.4909090909088285 0 0
0.5454545454544089 0 0
0.6 0.03999999999991203 0
0.6 0.07999999999979179 0
0.6 0.1199999999997886 0
0.6 0.1599999999998948 0
6.782380117742746 0.2 0
8.72398237157981 0.2 0
10.36327029790344 0.2 0
11.90317224680512 0.2 0
13.38220720281814 0.2 0
14.82292156068527 0.2 0
16.23648447903259 0.2 0
17.63132535932577 0.2 0
19.01268886794185 0.2 0
20.3840862509511 0.2 0
21.74800929328319 0.2 0
23.10624949493333 0.2 0
24.46011507975022 0.2 0
25.81061000239646 0.2 0
27.15846438592967 0.2 0
28.50423338611982 0.2 0
29.84835508550296 0.2 0
31.19116858237031 0.2 0
32.53293952079815 0.2 0
33.87387637568623 0.2 0
35.21414455232664 0.2 0
36.553875111016 0.2 0
37.89317280215932 0.2 0
39.23212119051409 0.2 0
40.57078742907129 0.2 0
41.90922536477279 0.2 0
43.24747844147826 0.2 0
44.58558162886625 0.2 0
45.92356322322635 0.2 0
47.26144607665439 0.2 0
48.59924872454323 0.2 0
49.93698617721987 0.2 0
51.27467063195567 0.2 0
52.61231198794425 0.2 0
53.94991828013028 0.2 0
55.28749604746054 0.2 0
56.62505079289868 0.2 0
57.96258687981177 0.2 0
59.30010774382082 0.2 0
60.63761646610794 0.2 0
61.97511544381035 0.2 0
63.31260666654117 0.2 0
64.65009184097968 0.2 0
65.98757262445147 0.2 0
67.3250501618011 0.2 0
68.66252561947938 0.2 0
70 0.2533333333332341 0
70 0.3066666666664725 0
70 0.3599999999996274 0
70 0.413333333332804 0
70 0.4666666666659806 0
70 0.5199999999991571 0
70 0.5733333333323336 0
70 0.6266666666656895 0
70 0.6799999999991551 0
70 0.7333333333326146 0
70 0.7866666666660802 0
70 0.8399999999995775 0
70 0.8933333333330373 0
70 0.9466666666664969 0
68.66824251259636 1 0
67.33648602673365 1 0
66.00473159232283 1 0
64.67298038055287 1 0
63.34123363099519 1 0
62.00949275930396 1 0
60.67775955251044 1 0
59.34603578478545 1 0
58.01432423901055 1 0
56.68262747429554 1 0
55.35094908483277 1 0
54.01929359856555 1 0
52.68766585799958 1 0
51.35607274431645 1 0
50.02452152904151 1 0
48.69302257286519 1 0
47.3615867461114 1 0
46.03023012829413 1 0
44.69896819219779 1 0
43.36782556494456 1 0
42.03682630589271 1 0
40.70600654451701 1 0
39.37540657025475 1 0
38.04507581363917 1 0
36.71507686309105 1 0
35.38548674697724 1 0
34.05639961572787 1 0
32.72793280425623 1 0
31.4002338669095 1 0
30.07347272089266 1 0
28.74786439269675 1 0
27.42369919253265 1 0
26.10127468057917 1 0
24.78102616794805 1 0
23.46344303053222 1 0
22.14913464680579 1 0
20.83884991815048 1 0
19.53348902420891 1 0
18.23415986263158 1 0
16.9421547771401 1 0
15.65900619962244 1 0
14.38650201816558 1 0
13.12641610220292 1 0
11.88051012223576 1 0
10.65050154443258 1 0
9.438936782851705 1 0
8.249469922887499 1 0
7.08968526211545 1 0
5.972981360907514 1 0
4.920485173123812 1 0
3.946177186051137 1 0
3.069695234294905 1 0
2.299276360051031 1 0
1.679450384708754 1 0
1.177786946024141 1 0
0.784964040707664 1 0
0.4780333510044935 1 0
0.2229223524495458 1 0
0 0.9473684210524125 0
0 0.8947368421048248 0
0 0.8421052631576025 0
0 0.7894736842105994 0
0 0.7368421052635962 0
0 0.6842105263165927 0
0 0.6315789473695894 0
0 0.5789473684225861 0
0 0.5263157894755828 0
0 0.4736842105282874 0
0 0.4210526315806998 0
0 0.3684210526331123 0
0 0.3157894736855248 0
0 0.2631578947379374 0
0 0.21052631579035 0
0 0.1578947368427625 0
0 0.1052631578951749 0
0 0.05263157894758741 0
4.515488665969674 0.955462795473483 0
5.403540288819032 0.2394317949808221 0
12.52262519337182 0.9557759867023439 0
58.75261159846668 0.9559758769411787 0
53.35346467124727 0.9559648099769389 0
48.0272707078765 0.9559648099769389 0
42.70224953539785 0.9559648099772646 0
37.44841820121214 0.9560078743553572 0
32.13074960893279 0.9561420672712786 0
26.76161554502161 0.95627738856474 0
21.49211219919455 0.9563034567995272 0
0.1122939526306825 0.5498854761242812 0
16.93814661672587 0.2442383967812095 0
55.99717205444806 0.2421522008426663 0
50.60579331658579 0.243586373321511 0
45.25462521659323 0.24363095694403 0
39.90163324767606 0.2436741865527954 0
34.54434854676094 0.2437170671454607 0
29.176905144584 0.2437587738062726 0
23.78431461700464 0.2442249255777628 0
2.773814932189917 0.2417757800606361 0
5.182991829821701 0.2785115072887754 0
68.7302990396058 0.5995349944823752 0
3.263337774767717 0.2791940688436214 0
4.996118890904476 0.3180386921514113 0
3.42301736814851 0.3181181454258206 0
4.793206155765628 0.3577335228902347 0
61.39600672398333 0.2416532643303031 0
3.427585200916325 0.3576683284772433 0
4.575556080987673 0.3976917483469583 0
5.903207275898661 0.3977458985417416 0
5.575185043908577 0.4382323507424581 0
6.863925323219316 0.4382172989803606 0
6.477324958471955 0.4790536480492864 0
7.727410475667569 0.4792447281197085 0
5.307487358294611 0.4817209888486334 0
1.952953104190065 0.9660670791366374 0
16.29934740491362 0.9559852449915113 0
7.298413424568983 0.5203953730037822 0
8.527489006433704 0.5205851219036783 0
62.77425778641002 0.9563165682871465 0
0.05791787210562777 0.2894490564426765 0
8.057495147999468 0.5622881188475496 0
9.279208877662031 0.5621981517123112 0
0.1413022653133505 0.7091098825652095 0
0.2811625380555491 0.04723774929726795 0
9.770714063992322 0.5200372393771872 0
10.51080240356325 0.562505099575485 0
8.788011942783239 0.6041261864689124 0
7.588483496281421 0.6041581669226386 0
68.80389214408021 0.4393531299125908 0
11.04111616581633 0.5199435586712576 0
11.76869547199555 0.5624873891767795 0
2.188821396341169 0.3174350849704655 0
2.323168791139028 0.3576870257641042 0
12.32141745093007 0.5195844107098163 0
13.0445203843998 0.5621174250913318 0
8.293412544883759 0.6460588488486728 0
7.123040253321616 0.6462390077748084 0
12.45603319007229 0.6067218912904607 0
13.75153548728247 0.6047738158182728 0
14.33215238356549 0.5617915498272615 0
15.03546618205703 0.6045430073239006 0
15.63176307131604 0.5614360364847856 0
16.32960745925828 0.6046345614192383 0
16.93505741949144 0.5613114208485291 0
17.63164143079527 0.604758732930365 0
18.2322562284018 0.5597386087889248 0
18.94201258181232 0.6042836632406788 0
19.57428289385095 0.5607219500906248 0
20.26189051342829 0.6043040651294929 0
20.89798887789251 0.5598592244124957 0
21.58305931291245 0.6040638744783449 0
22.22432517100505 0.5595216793632644 0
22.90694788149552 0.6038781229769293 0
23.55228086256994 0.5600604284234054 0
24.23280778792383 0.6038664424080111 0
24.86904884618474 0.55874807111347 0
25.55908246750854 0.6035341865995129 0
26.20426057020192 0.5586520846649797 0
26.88934641109519 0.6034054551655909 0
27.54309939726324 0.558835304845746 0
28.2208070432628 0.6032503772964327 0
28.87683269570648 0.5587079795953892 0
29.55269400459499 0.6030926920218221 0
30.20993996780125 0.5580480170404921 0
30.88497583142756 0.6028436706904448 0
31.54333658104081 0.5577680566445021 0
32.21770118882726 0.6026435181305781 0
32.8769966232077 0.5575726351194972 0
33.55084844695336 0.6024617369905624 0
34.21089771069744 0.5573842056888257 0
34.8844267398085 0.6022873884346892 0
35.54499644075158 0.5572075399874397 0
36.2181899101694 0.6021111834258887 0
36.87923657131566 0.5570246051384745 0
37.5521135297769 0.6019307913070558 0
38.21357787115615 0.5568475628142857 0
38.88622505939956 0.6017522495250318 0
39.5480125842116 0.5566653603575672 0
40.2205299130074 0.601574020443024 0
40.88252690077042 0.5564884669211013 0
41.55489361155125 0.601395113412113 0
42.21709248936657 0.5563067813822595 0
42.88920512819188 0.6012129143420911 0
43.5516799027146 0.5561292537946573 0
44.22368740721217 0.601032757987411 0
44.88631785100282 0.5559477304122714 0
45.55837824661269 0.600855564813206 0
46.22101064873848 0.5557710179709322 0
46.89300702774525 0.6006760179252703 0
47.55571212635232 0.5555900146741853 0
48.22759868966691 0.6004921726308964 0
48.89041652045898 0.5554125217101814 0
49.56225454688061 0.6003111949874665 0
50.22513843757588 0.5552312296013228 0
50.89685666428612 0.6001298880828497 0
51.55986634014704 0.5550546947866846 0
52.23157341519811 0.599950595338254 0
52.89467335438609 0.5548708301001631 0
53.56647784271941 0.5997713467128002 0
54.22973900459188 0.5547000681173012 0
54.90169687922012 0.5996004731097838 0
55.56524716181865 0.5545095609010697 0
56.2372500720503 0.5994220729206983 0
56.90152090600738 0.5543494429014709 0
57.57323960811903 0.5993228147833797 0
58.23916539580026 0.5541346321759457 0
58.91266064014126 0.5992395038842441 0
59.58042471662731 0.5540180644105763 0
68.92469801612701 0.7598964409357507 0
60.25705470643056 0.5990918128353608 0
1.426158087355998 0.3159793431387367 0
1.575948223593284 0.357715436029677 0
0.9597343495629597 0.3157219358498637 0
1.073386630888364 0.3576135465858128 0
55.56961731552325 0.643990885448769 0
50.23383040675538 0.6444881680698032 0
18.31451397879519 0.6487487015028032 0
44.89568341301386 0.6452136474256573 0
39.55855960162388 0.6459229900926835 0
0.6641592455561832 0.3150377509381005 0
0.7440150214780955 0.3574251905568473 0
1.135369134668197 0.4002519798591844 0
34.22407408663736 0.6466170330762969 0
23.5878430075179 0.6479317947648683 0
28.89729492334507 0.6473399689389928 0
14.4512654822563 0.6483605753517908 0
7.806829680171343 0.6883083412871458 0
6.661834445638542 0.6885103796531055 0
60.92566070869256 0.5527758280498023 0
20.1864635083207 0.5148848291986879 0
59.58692877766141 0.6438096025956825 0
60.93381722306265 0.6437140715169269 0
26.85201100154284 0.5138574114565649 0
32.19275816756859 0.5115839513085039 0
37.53276195173768 0.5109012431757174 0
42.87304498110518 0.510388685431229 0
0.7877213716478958 0.4001745965167012 0
1.151673021712781 0.4433206937839571 0
48.21344823311187 0.5096846626216972 0
[...]
    <PointData>
      <DataArray type="Float64" NumberOfComponents="3" Name="Velocity" format="ascii">
-nan -nan 0
-nan -nan 0
-nan -nan 0
-nan -nan 0
-nan -nan 0
-nan -nan 0
-nan -nan 0
-nan -nan 0
-nan -nan 0
-nan -nan 0
-nan -nan 0
-nan -nan 0
-nan -nan 0
-nan -nan 0
-nan -nan 0
-nan -nan 0
-nan -nan 0
-nan -nan 0
-nan -nan 0
-nan -nan 0
-nan -nan 0
-nan -nan 0
-nan -nan 0
-nan -nan 0
-nan -nan 0
-nan -nan 0
-nan -nan 0
-nan -nan 0
-nan -nan 0
-nan -nan 0
-nan -nan 0
-nan -nan 0
-nan -nan 0
-nan -nan 0
-nan -nan 0
-nan -nan 0
-nan -nan 0
-nan -nan 0
-nan -nan 0
-nan -nan 0
-nan -nan 0
-nan -nan 0
-nan -nan 0
-nan -nan 0
-nan -nan 0
-nan -nan 0
-nan -nan 0
-nan -nan 0
-nan -nan 0
-nan -nan 0
-nan -nan 0
-nan -nan 0
-nan -nan 0
-nan -nan 0
-nan -nan 0
-nan -nan 0
-nan -nan 0
-nan -nan 0
-nan -nan 0
-nan -nan 0
-nan -nan 0
-nan -nan 0
-nan -nan 0
-nan -nan 0
-nan -nan 0
-nan -nan 0
-nan -nan 0
-nan -nan 0
-nan -nan 0
-nan -nan 0
-nan -nan 0
-nan -nan 0
-nan -nan 0
-nan -nan 0
-nan -nan 0
-nan -nan 0
-nan -nan 0
-nan -nan 0
-nan -nan 0
-nan -nan 0
-nan -nan 0
-nan -nan 0
-nan -nan 0
-nan -nan 0
-nan -nan 0
-nan -nan 0
-nan -nan 0
-nan -nan 0
-nan -nan 0
-nan -nan 0
-nan -nan 0
-nan -nan 0
-nan -nan 0
-nan -nan 0
-nan -nan 0
-nan -nan 0
-nan -nan 0
-nan -nan 0
-nan -nan 0
-nan -nan 0
-nan -nan 0
-nan -nan 0
-nan -nan 0
-nan -nan 0
-nan -nan 0
-nan -nan 0
-nan -nan 0
-nan -nan 0
-nan -nan 0
-nan -nan 0
-nan -nan 0
-nan -nan 0
-nan -nan 0
-nan -nan 0
-nan -nan 0
-nan -nan 0
-nan -nan 0
-nan -nan 0
-nan -nan 0
-nan -nan 0
-nan -nan 0
-nan -nan 0
-nan -nan 0
-nan -nan 0
-nan -nan 0
-nan -nan 0
-nan -nan 0
-nan -nan 0
-nan -nan 0
-nan -nan 0
-nan -nan 0
-nan -nan 0
-nan -nan 0
-nan -nan 0
-nan -nan 0
-nan -nan 0
-nan -nan 0
-nan -nan 0
-nan -nan 0
-nan -nan 0
-nan -nan 0
-nan -nan 0
-nan -nan 0
-nan -nan 0
-nan -nan 0
-nan -nan 0
-nan -nan 0
-nan -nan 0
-nan -nan 0
-nan -nan 0
-nan -nan 0
-nan -nan 0
-nan -nan 0
-nan -nan 0
-nan -nan 0
-nan -nan 0
-nan -nan 0
-nan -nan 0
-nan -nan 0
-nan -nan 0
-nan -nan 0
-nan -nan 0
-nan -nan 0
-nan -nan 0
-nan -nan 0
-nan -nan 0
-nan -nan 0
-nan -nan 0
-nan -nan 0
-nan -nan 0
-nan -nan 0
-nan -nan 0
-nan -nan 0
-nan -nan 0
-nan -nan 0
-nan -nan 0
-nan -nan 0
-nan -nan 0
-nan -nan 0
-nan -nan 0
-nan -nan 0
-nan -nan 0
-nan -nan 0
-nan -nan 0
-nan -nan 0
-nan -nan 0
-nan -nan 0
-nan -nan 0
-nan -nan 0
-nan -nan 0
-nan -nan 0
-nan -nan 0
-nan -nan 0
-nan -nan 0
-nan -nan 0
-nan -nan 0
-nan -nan 0
-nan -nan 0
-nan -nan 0
-nan -nan 0
-nan -nan 0
-nan -nan 0
-nan -nan 0
-nan -nan 0
-nan -nan 0
-nan -nan 0
-nan -nan 0
-nan -nan 0
-nan -nan 0
-nan -nan 0
-nan -nan 0
-nan -nan 0
-nan -nan 0
-nan -nan 0
-nan -nan 0
-nan -nan 0
-nan -nan 0
-nan -nan 0
-nan -nan 0
-nan -nan 0
-nan -nan 0
-nan -nan 0
-nan -nan 0
-nan -nan 0
-nan -nan 0
-nan -nan 0
-nan -nan 0
-nan -nan 0
-nan -nan 0
-nan -nan 0
-nan -nan 0
-nan -nan 0
-nan -nan 0
-nan -nan 0
-nan -nan 0
-nan -nan 0
-nan -nan 0
-nan -nan 0
-nan -nan 0
-nan -nan 0
-nan -nan 0
-nan -nan 0
-nan -nan 0
-nan -nan 0
-nan -nan 0
-nan -nan 0
-nan -nan 0
-nan -nan 0
-nan -nan 0
-nan -nan 0
-nan -nan 0
-nan -nan 0
-nan -nan 0
-nan -nan 0
-nan -nan 0
-nan -nan 0
-nan -nan 0
-nan -nan 0
-nan -nan 0
-nan -nan 0
-nan -nan 0
-nan -nan 0
-nan -nan 0
-nan -nan 0
-nan -nan 0
-nan -nan 0
-nan -nan 0
-nan -nan 0
-nan -nan 0
-nan -nan 0
-nan -nan 0
-nan -nan 0
-nan -nan 0
-nan -nan 0
-nan -nan 0
-nan -nan 0
-nan -nan 0
-nan -nan 0
-nan -nan 0
-nan -nan 0
-nan -nan 0
-nan -nan 0
-nan -nan 0
-nan -nan 0
-nan -nan 0
-nan -nan 0
-nan -nan 0
-nan -nan 0
-nan -nan 0
-nan -nan 0
-nan -nan 0
-nan -nan 0
-nan -nan 0
-nan -nan 0
-nan -nan 0
-nan -nan 0
-nan -nan 0
-nan -nan 0
-nan -nan 0
-nan -nan 0
-nan -nan 0
-nan -nan 0
-nan -nan 0
-nan -nan 0
-nan -nan 0
-nan -nan 0
-nan -nan 0
-nan -nan 0
-nan -nan 0
-nan -nan 0
-nan -nan 0
-nan -nan 0
-nan -nan 0
-nan -nan 0
-nan -nan 0
-nan -nan 0
-nan -nan 0
-nan -nan 0
-nan -nan 0
-nan -nan 0
-nan -nan 0
-nan -nan 0
-nan -nan 0
-nan -nan 0
-nan -nan 0
-nan -nan 0
-nan -nan 0
-nan -nan 0
-nan -nan 0
-nan -nan 0
-nan -nan 0
-nan -nan 0
-nan -nan 0
-nan -nan 0
-nan -nan 0
-nan -nan 0
-nan -nan 0
-nan -nan 0
-nan -nan 0
-nan -nan 0
-nan -nan 0
-nan -nan 0
-nan -nan 0
-nan -nan 0
-nan -nan 0
-nan -nan 0
-nan -nan 0
-nan -nan 0
-nan -nan 0
-nan -nan 0
-nan -nan 0
-nan -nan 0
-nan -nan 0
-nan -nan 0
-nan -nan 0
-nan -nan 0
-nan -nan 0
-nan -nan 0
-nan -nan 0
-nan -nan 0
-nan -nan 0
-nan -nan 0
-nan -nan 0
-nan -nan 0
-nan -nan 0
-nan -nan 0
-nan -nan 0
-nan -nan 0
-nan -nan 0
-nan -nan 0
-nan -nan 0
-nan -nan 0
-nan -nan 0
-nan -nan 0
-nan -nan 0
-nan -nan 0
-nan -nan 0
-nan -nan 0
-nan -nan 0
-nan -nan 0
-nan -nan 0
-nan -nan 0
-nan -nan 0
-nan -nan 0
-nan -nan 0
-nan -nan 0
-nan -nan 0
-nan -nan 0
-nan -nan 0
-nan -nan 0
-nan -nan 0
-nan -nan 0
-nan -nan 0
-nan -nan 0
-nan -nan 0
-nan -nan 0
-nan -nan 0
-nan -nan 0
-nan -nan 0
-nan -nan 0
-nan -nan 0
-nan -nan 0
-nan -nan 0
-nan -nan 0
-nan -nan 0
-nan -nan 0
-nan -nan 0
-nan -nan 0
-nan -nan 0
-nan -nan 0
-nan -nan 0
-nan -nan 0
-nan -nan 0
-nan -nan 0
-nan -nan 0
-nan -nan 0
-nan -nan 0
-nan -nan 0
-nan -nan 0
-nan -nan 0
-nan -nan 0
-nan -nan 0
-nan -nan 0
-nan -nan 0
-nan -nan 0
-nan -nan 0
-nan -nan 0
-nan -nan 0
-nan -nan 0
-nan -nan 0
-nan -nan 0
-nan -nan 0
-nan -nan 0
-nan -nan 0
-nan -nan 0
-nan -nan 0
-nan -nan 0
-nan -nan 0
-nan -nan 0
-nan -nan 0
-nan -nan 0
-nan -nan 0
-nan -nan 0
-nan -nan 0
-nan -nan 0
-nan -nan 0
-nan -nan 0
-nan -nan 0
-nan -nan 0
-nan -nan 0
-nan -nan 0
-nan -nan 0
-nan -nan 0
-nan -nan 0
-nan -nan 0
-nan -nan 0
-nan -nan 0
-nan -nan 0
-nan -nan 0
-nan -nan 0
-nan -nan 0
-nan -nan 0
-nan -nan 0
-nan -nan 0
-nan -nan 0
-nan -nan 0
-nan -nan 0
-nan -nan 0
-nan -nan 0
-nan -nan 0
-nan -nan 0
-nan -nan 0
-nan -nan 0
-nan -nan 0
-nan -nan 0
-nan -nan 0
-nan -nan 0
-nan -nan 0
-nan -nan 0
-nan -nan 0
-nan -nan 0
-nan -nan 0
-nan -nan 0
-nan -nan 0
-nan -nan 0
-nan -nan 0
-nan -nan 0
-nan -nan 0
-nan -nan 0
-nan -nan 0
-nan -nan 0
-nan -nan 0
-nan -nan 0
-nan -nan 0
-nan -nan 0
-nan -nan 0
-nan -nan 0
-nan -nan 0
-nan -nan 0
-nan -nan 0
-nan -nan 0
-nan -nan 0
-nan -nan 0
-nan -nan 0
-nan -nan 0
-nan -nan 0
-nan -nan 0
-nan -nan 0
-nan -nan 0
-nan -nan 0
-nan -nan 0
-nan -nan 0
-nan -nan 0
-nan -nan 0
-nan -nan 0
-nan -nan 0
-nan -nan 0
-nan -nan 0
-nan -nan 0
-nan -nan 0
-nan -nan 0
-nan -nan 0
-nan -nan 0
-nan -nan 0
-nan -nan 0
-nan -nan 0
-nan -nan 0
-nan -nan 0
-nan -nan 0
-nan -nan 0
-nan -nan 0
-nan -nan 0
-nan -nan 0
-nan -nan 0
-nan -nan 0
-nan -nan 0
-nan -nan 0
-nan -nan 0
-nan -nan 0
-nan -nan 0
-nan -nan 0
-nan -nan 0
-nan -nan 0
-nan -nan 0
-nan -nan 0
-nan -nan 0
-nan -nan 0
-nan -nan 0
-nan -nan 0
-nan -nan 0
-nan -nan 0
-nan -nan 0
-nan -nan 0
-nan -nan 0
-nan -nan 0
-nan -nan 0
-nan -nan 0
-nan -nan 0
-nan -nan 0
-nan -nan 0
-nan -nan 0
-nan -nan 0
-nan -nan 0
-nan -nan 0
-nan -nan 0
-nan -nan 0
-nan -nan 0
-nan -nan 0
-nan -nan 0
-nan -nan 0
-nan -nan 0
-nan -nan 0
-nan -nan 0
-nan -nan 0
-nan -nan 0
-nan -nan 0
-nan -nan 0
-nan -nan 0
-nan -nan 0
-nan -nan 0
-nan -nan 0
-nan -nan 0
-nan -nan 0
-nan -nan 0
-nan -nan 0
-nan -nan 0
-nan -nan 0
-nan -nan 0
-nan -nan 0
-nan -nan 0
-nan -nan 0
-nan -nan 0
-nan -nan 0
-nan -nan 0
-nan -nan 0
-nan -nan 0
-nan -nan 0
-nan -nan 0
-nan -nan 0
-nan -nan 0
-nan -nan 0
-nan -nan 0
-nan -nan 0
-nan -nan 0
-nan -nan 0
-nan -nan 0
-nan -nan 0
-nan -nan 0
-nan -nan 0
-nan -nan 0
-nan -nan 0
-nan -nan 0
-nan -nan 0
-nan -nan 0
-nan -nan 0
-nan -nan 0
-nan -nan 0
-nan -nan 0
-nan -nan 0
-nan -nan 0
-nan -nan 0
-nan -nan 0
-nan -nan 0
-nan -nan 0
-nan -nan 0
-nan -nan 0
-nan -nan 0
-nan -nan 0
-nan -nan 0
-nan -nan 0
-nan -nan 0
-nan -nan 0
-nan -nan 0
-nan -nan 0
-nan -nan 0
-nan -nan 0
-nan -nan 0
-nan -nan 0
-nan -nan 0
-nan -nan 0
-nan -nan 0
-nan -nan 0
-nan -nan 0
-nan -nan 0
-nan -nan 0
-nan -nan 0
-nan -nan 0
-nan -nan 0
-nan -nan 0
-nan -nan 0
-nan -nan 0
-nan -nan 0
-nan -nan 0
-nan -nan 0
-nan -nan 0
-nan -nan 0
-nan -nan 0
-nan -nan 0
-nan -nan 0
-nan -nan 0
-nan -nan 0
-nan -nan 0
-nan -nan 0
-nan -nan 0
-nan -nan 0
-nan -nan 0
-nan -nan 0
-nan -nan 0
-nan -nan 0
-nan -nan 0
-nan -nan 0
-nan -nan 0
-nan -nan 0
-nan -nan 0
-nan -nan 0
-nan -nan 0
-nan -nan 0
-nan -nan 0
-nan -nan 0
-nan -nan 0
-nan -nan 0
-nan -nan 0
-nan -nan 0
-nan -nan 0
-nan -nan 0
-nan -nan 0
-nan -nan 0
-nan -nan 0
-nan -nan 0
-nan -nan 0
-nan -nan 0
-nan -nan 0
-nan -nan 0
-nan -nan 0
-nan -nan 0
-nan -nan 0
-nan -nan 0
-nan -nan 0
-nan -nan 0
-nan -nan 0
-nan -nan 0
-nan -nan 0
-nan -nan 0
-nan -nan 0
-nan -nan 0
-nan -nan 0
-nan -nan 0
-nan -nan 0
-nan -nan 0
-nan -nan 0
-nan -nan 0
-nan -nan 0
-nan -nan 0
-nan -nan 0
-nan -nan 0
-nan -nan 0
-nan -nan 0
-nan -nan 0
-nan -nan 0
-nan -nan 0
-nan -nan 0
-nan -nan 0
-nan -nan 0
-nan -nan 0
-nan -nan 0
-nan -nan 0
-nan -nan 0
-nan -nan 0
-nan -nan 0
-nan -nan 0
-nan -nan 0
-nan -nan 0
-nan -nan 0
-nan -nan 0
-nan -nan 0
-nan -nan 0
-nan -nan 0
-nan -nan 0
-nan -nan 0
-nan -nan 0
-nan -nan 0
-nan -nan 0
-nan -nan 0
-nan -nan 0
-nan -nan 0
-nan -nan 0
-nan -nan 0
-nan -nan 0
-nan -nan 0
-nan -nan 0
-nan -nan 0
-nan -nan 0
-nan -nan 0
-nan -nan 0
-nan -nan 0
-nan -nan 0
-nan -nan 0
-nan -nan 0
-nan -nan 0
-nan -nan 0
-nan -nan 0
-nan -nan 0
-nan -nan 0
-nan -nan 0
-nan -nan 0
-nan -nan 0
-nan -nan 0
-nan -nan 0
-nan -nan 0
-nan -nan 0
-nan -nan 0
-nan -nan 0
-nan -nan 0
-nan -nan 0
-nan -nan 0
-nan -nan 0
-nan -nan 0
-nan -nan 0
-nan -nan 0
-nan -nan 0
-nan -nan 0
-nan -nan 0
-nan -nan 0
-nan -nan 0
-nan -nan 0
-nan -nan 0
-nan -nan 0
-nan -nan 0
-nan -nan 0
-nan -nan 0
-nan -nan 0
-nan -nan 0
-nan -nan 0
-nan -nan 0
-nan -nan 0
-nan -nan 0
-nan -nan 0
-nan -nan 0
-nan -nan 0
-nan -nan 0
-nan -nan 0
-nan -nan 0
-nan -nan 0
-nan -nan 0
-nan -nan 0
-nan -nan 0
-nan -nan 0
-nan -nan 0
-nan -nan 0
-nan -nan 0
-nan -nan 0
-nan -nan 0
-nan -nan 0
-nan -nan 0
-nan -nan 0
-nan -nan 0
-nan -nan 0
-nan -nan 0
-nan -nan 0
-nan -nan 0
-nan -nan 0
-nan -nan 0
-nan -nan 0
-nan -nan 0
-nan -nan 0
-nan -nan 0
-nan -nan 0
-nan -nan 0
-nan -nan 0
-nan -nan 0
-nan -nan 0
-nan -nan 0
-nan -nan 0
-nan -nan 0
-nan -nan 0
-nan -nan 0
-nan -nan 0
-nan -nan 0
-nan -nan 0
-nan -nan 0
-nan -nan 0
-nan -nan 0
-nan -nan 0
-nan -nan 0
-nan -nan 0
-nan -nan 0
-nan -nan 0
-nan -nan 0
-nan -nan 0
-nan -nan 0
-nan -nan 0
-nan -nan 0
-nan -nan 0
-nan -nan 0
-nan -nan 0
-nan -nan 0
-nan -nan 0
-nan -nan 0
-nan -nan 0
-nan -nan 0
-nan -nan 0
-nan -nan 0
-nan -nan 0
-nan -nan 0
-nan -nan 0
-nan -nan 0
-nan -nan 0
-nan -nan 0
-nan -nan 0
-nan -nan 0
-nan -nan 0
-nan -nan 0
-nan -nan 0
-nan -nan 0
-nan -nan 0
-nan -nan 0
-nan -nan 0
-nan -nan 0
-nan -nan 0
-nan -nan 0
-nan -nan 0
-nan -nan 0
-nan -nan 0
-nan -nan 0
-nan -nan 0
-nan -nan 0
-nan -nan 0
-nan -nan 0
-nan -nan 0
-nan -nan 0
-nan -nan 0
-nan -nan 0
-nan -nan 0
-nan -nan 0
-nan -nan 0
-nan -nan 0
-nan -nan 0
-nan -nan 0
-nan -nan 0
-nan -nan 0
-nan -nan 0
-nan -nan 0
-nan -nan 0
-nan -nan 0
-nan -nan 0
-nan -nan 0
-nan -nan 0
-nan -nan 0
-nan -nan 0
-nan -nan 0
-nan -nan 0
-nan -nan 0
-nan -nan 0
-nan -nan 0
-nan -nan 0
-nan -nan 0
-nan -nan 0
-nan -nan 0
-nan -nan 0
-nan -nan 0
-nan -nan 0
-nan -nan 0
-nan -nan 0
-nan -nan 0
-nan -nan 0
-nan -nan 0
-nan -nan 0
-nan -nan 0
-nan -nan 0
-nan -nan 0
-nan -nan 0
-nan -nan 0
-nan -nan 0
-nan -nan 0
-nan -nan 0
-nan -nan 0
-nan -nan 0
-nan -nan 0
-nan -nan 0
-nan -nan 0
-nan -nan 0
-nan -nan 0
-nan -nan 0
-nan -nan 0
-nan -nan 0
-nan -nan 0
-nan -nan 0
-nan -nan 0
-nan -nan 0
-nan -nan 0
-nan -nan 0
-nan -nan 0
-nan -nan 0
-nan -nan 0
-nan -nan 0
-nan -nan 0
-nan -nan 0
-nan -nan 0
-nan -nan 0
-nan -nan 0
-nan -nan 0
-nan -nan 0
-nan -nan 0
-nan -nan 0
-nan -nan 0
-nan -nan 0
-nan -nan 0
-nan -nan 0
-nan -nan 0
-nan -nan 0
-nan -nan 0
-nan -nan 0
-nan -nan 0
-nan -nan 0
-nan -nan 0
-nan -nan 0
-nan -nan 0
-nan -nan 0
-nan -nan 0
-nan -nan 0
-nan -nan 0
-nan -nan 0
-nan -nan 0
-nan -nan 0
-nan -nan 0
-nan -nan 0
-nan -nan 0
-nan -nan 0
-nan -nan 0
-nan -nan 0
-nan -nan 0
-nan -nan 0
-nan -nan 0
-nan -nan 0
-nan -nan 0
-nan -nan 0
-nan -nan 0
-nan -nan 0
-nan -nan 0
-nan -nan 0
-nan -nan 0
-nan -nan 0
-nan -nan 0
-nan -nan 0
-nan -nan 0
-nan -nan 0
-nan -nan 0
-nan -nan 0
-nan -nan 0
-nan -nan 0
-nan -nan 0
-nan -nan 0
-nan -nan 0
-nan -nan 0
-nan -nan 0
-nan -nan 0
-nan -nan 0
-nan -nan 0
-nan -nan 0
-nan -nan 0
-nan -nan 0
-nan -nan 0
-nan -nan 0
-nan -nan 0
-nan -nan 0
-nan -nan 0
-nan -nan 0
-nan -nan 0
-nan -nan 0
-nan -nan 0
-nan -nan 0
-nan -nan 0
-nan -nan 0
-nan -nan 0
-nan -nan 0
-nan -nan 0
-nan -nan 0
-nan -nan 0
-nan -nan 0
-nan -nan 0
-nan -nan 0
-nan -nan 0
-nan -nan 0
-nan -nan 0
-nan -nan 0
-nan -nan 0
-nan -nan 0
-nan -nan 0
-nan -nan 0
-nan -nan 0
-nan -nan 0
-nan -nan 0
-nan -nan 0
-nan -nan 0
-nan -nan 0
-nan -nan 0
-nan -nan 0
-nan -nan 0
-nan -nan 0
-nan -nan 0
-nan -nan 0
-nan -nan 0
-nan -nan 0
-nan -nan 0
-nan -nan 0
-nan -nan 0
-nan -nan 0
-nan -nan 0
-nan -nan 0
-nan -nan 0
-nan -nan 0
-nan -nan 0
-nan -nan 0
-nan -nan 0
-nan -nan 0
-nan -nan 0
-nan -nan 0
-nan -nan 0
-nan -nan 0
-nan -nan 0
-nan -nan 0
-nan -nan 0
-nan -nan 0
-nan -nan 0
-nan -nan 0
-nan -nan 0
-nan -nan 0
-nan -nan 0
-nan -nan 0
-nan -nan 0
-nan -nan 0
-nan -nan 0
-nan -nan 0
-nan -nan 0
-nan -nan 0
-nan -nan 0
-nan -nan 0
-nan -nan 0
-nan -nan 0
-nan -nan 0
-nan -nan 0
-nan -nan 0
-nan -nan 0
-nan -nan 0
-nan -nan 0
-nan -nan 0
-nan -nan 0
-nan -nan 0
-nan -nan 0
-nan -nan 0
-nan -nan 0
-nan -nan 0
-nan -nan 0
-nan -nan 0
-nan -nan 0
-nan -nan 0
-nan -nan 0
-nan -nan 0
-nan -nan 0
-nan -nan 0
-nan -nan 0
-nan -nan 0
-nan -nan 0
-nan -nan 0
-nan -nan 0
-nan -nan 0
-nan -nan 0
-nan -nan 0
-nan -nan 0
-nan -nan 0
-nan -nan 0
-nan -nan 0
-nan -nan 0
-nan -nan 0
-nan -nan 0
-nan -nan 0
-nan -nan 0
-nan -nan 0
-nan -nan 0
-nan -nan 0
-nan -nan 0
-nan -nan 0
-nan -nan 0
-nan -nan 0
-nan -nan 0
-nan -nan 0
-nan -nan 0
-nan -nan 0
-nan -nan 0
-nan -nan 0
-nan -nan 0
-nan -nan 0
-nan -nan 0
-nan -nan 0
-nan -nan 0
-nan -nan 0
-nan -nan 0
-nan -nan 0
-nan -nan 0
-nan -nan 0
-nan -nan 0
-nan -nan 0
-nan -nan 0
-nan -nan 0
-nan -nan 0
-nan -nan 0
-nan -nan 0
-nan -nan 0
-nan -nan 0
-nan -nan 0
-nan -nan 0
-nan -nan 0
-nan -nan 0
-nan -nan 0
-nan -nan 0
-nan -nan 0
-nan -nan 0
-nan -nan 0
-nan -nan 0
-nan -nan 0
-nan -nan 0
-nan -nan 0
-nan -nan 0
-nan -nan 0
-nan -nan 0
-nan -nan 0
-nan -nan 0
-nan -nan 0
-nan -nan 0
-nan -nan 0
-nan -nan 0
-nan -nan 0
-nan -nan 0
-nan -nan 0
-nan -nan 0
-nan -nan 0
-nan -nan 0
-nan -nan 0
-nan -nan 0
-nan -nan 0
-nan -nan 0
-nan -nan 0
-nan -nan 0
-nan -nan 0
-nan -nan 0
-nan -nan 0
-nan -nan 0
-nan -nan 0
-nan -nan 0
-nan -nan 0
-nan -nan 0
-nan -nan 0
-nan -nan 0
-nan -nan 0
-nan -nan 0
-nan -nan 0
-nan -nan 0
-nan -nan 0
-nan -nan 0
-nan -nan 0
-nan -nan 0
-nan -nan 0
-nan -nan 0
-nan -nan 0
      </DataArray> 
      <DataArray type="Float64" NumberOfComponents="3" Name="MeshDisp" format="ascii">
0 0 0
0 0 0
0 0 0
0.9999999999999999 0 0
1 0 0
0 0 0
0 0 0
0 0 0
0 0 0
0 0 0
0 0 0
0 0 0
0 0 0
0 0 0
0 0 0
0 0 0
0 0 0
0 0 0
0 0 0
0 0 0
0.08673357415309778 0 0
0.1142303261292702 0 0
0.1376058170758853 0 0
0.1596343003731632 0 0
0.1808601301875731 0 0
0.2015944634672428 0 0
0.2219674939073463 0 0
0.2420917896586504 0 0
0.2620378245261084 0 0
0.2818527946644555 0 0
0.301569213703249 0 0
0.3212102932134606 0 0
0.3407935136823372 0 0
0.3603318039268648 0 0
0.3798347383120908 0 0
0.3993097393334482 0 0
0.4187625684881119 0 0
0.4381977396082899 0 0
0.4576187797233626 0 0
0.4770284831101314 0 0
0.4964290632690981 0 0
0.5158222885134828 0 0
0.5352095694429013 0 0
0.5545920408950109 0 0
0.5739706141698377 0 0
0.5933460255931091 0 0
0.612718868928151 0 0
0.6320896252944985 0 0
0.6514586838076091 0 0
0.6708263606805902 0 0
0.6901929124748455 0 0
0.7095585481689687 0 0
0.7289234375989636 0 0
0.7482877192288137 0 0
0.7676515054677363 0 0
0.7870148881899474 0 0
0.8063779444857437 0 0
0.8257407358723049 0 0
0.8451033109805348 0 0
0.8644657133442721 0 0
0.8838279769041554 0 0
0.9031901299299333 0 0
0.9225521967158223 0 0
0.9419142006940328 0 0
0.9612761584235653 0 0
0.9806380867119143 0 0
1 0 0
0.9999999999999999 0 0
1 0 0
1 0 0
1 0 0
1 0 0
1 0 0
1 0 0
1 0 0
0.9999999999999999 0 0
1 0 0
0.9999999999999999 0 0
1 0 0
1 0 0
0.980720847174561 0 0
0.9614417094584866 0 0
0.9421626020419962 0 0
0.9228835419800314 0 0
0.9036045474052048 0 0
0.8843256391420918 0 0
0.8650468435812363 0 0
0.8457681867389431 0 0
0.826489709975946 0 0
0.8072114510390368 0 0
0.7879334632006514 0 0
0.7686558139999942 0 0
0.7493785752244261 0 0
0.7301018499821401 0 0
0.7108257463819194 0 0
0.6915504204435896 0 0
0.6722760346778809 0 0
0.6530028322711379 0 0
0.6337310437244378 0 0
0.6144610459359603 0 0
0.5951931994121404 0 0
0.5759280589070432 0 0
0.5566662375102125 0 0
0.5374084922218226 0 0
0.5181557835790296 0 0
0.498909302944209 0 0
0.4796705032594533 0 0
0.4604412140045716 0 0
0.4412237411889995 0 0
0.4220207435815326 0 0
0.4028356060922047 0 0
0.3836729119780974 0 0
0.3645373556316922 0 0
0.3454360156280434 0 0
0.3263767642811646 0 0
0.3073694864094514 0 0
0.2884263736263576 0 0
0.2695619432331729 0 0
0.2507944290528852 0 0
0.2321453548817118 0 0
0.2136411175138689 0 0
0.1953143185729165 0 0
0.1771974251614653 0 0
0.1593237099481426 0 0
0.1417270058458885 0 0
0.1244520062540238 0 0
0.107549426475657 0 0
0.09112878844335424 0 0
0.07537097621619207 0 0
0.06055917884658488 0 0
0.04687767532654383 0 0
0.03461160594389692 0 0
0.02390970781672296 0 0
0.01558743188664997 0 0
0.009261225193319787 0 0
0.004929604428710546 0 0
0.002318240159628735 0 0
0.000795976695147278 0 0
0 0 0
0 0 0
0 0 0
0 0 0
0 0 0
0 0 0
0 0 0
0 0 0
0 0 0
0 0 0
0 0 0
0 0 0
0 0 0
0 0 0
0 0 0
0 0 0
0 0 0
0 0 0
0.05486829002547835 0 0
0.06736818699555477 0 0
0.1685301462314164 0 0
0.8371775013331044 0 0
0.7590169753963421 0 0
0.6819127322984333 0 0
0.6048260059002784 0 0
0.5287714046140709 0 0
0.4517973262543029 0 0
0.3740922168058528 0 0
0.2978698941898588 0 0
-3.639389487342036e-05 0 0
0.2320885215451804 0 0
0.7972884829461999 0 0
0.7192404825728151 0 0
0.6417749117518153 0 0
0.5642838968527247 0 0
0.4867336042117079 0 0
0.4090448076604325 0 0
0.3310177033838927 0 0
0.03046931192451156 0 0
0.06426856241648111 0 0
0.9816192067754386 0 0
0.03734190670234561 0 0
0.06164205017707835 0 0
0.03958167497658386 0 0
0.05879084667019906 0 0
0.8754445267940926 0 0
0.03964210155231399 0 0
0.0557332682854423 0 0
0.07439123007118423 0 0
0.06977576381890666 0 0
0.08792859820307447 0 0
0.08247737662760164 0 0
0.1001362942908824 0 0
0.0660105828638191 0 0
0.01921868164515076 0 0
0.2228729373888507 0 0
0.09407035414581995 0 0
0.1114813357461022 0 0
0.8953967377918476 0 0
-0.0005466215345540685 0 0
0.1048175259584553 0 0
0.1221676410054552 0 0
0.0002894264697742758 0 0
-0.001011201255022731 0 0
0.12916518929275 0 0
0.1397256574428814 0 0
0.1151856465593249 0 0
0.09817691931120173 0 0
0.9826845754787014 0 0
0.1473030003232475 0 0
0.1577176364313667 0 0
0.02221374742967834 0 0
0.02411126301438219 0 0
0.1656390033988802 0 0
0.1760180316516843 0 0
0.1081663483102176 0 0
0.09159638332838112 0 0
0.1675719380310963 0 0
0.1861784783592463 0 0
0.1945299024943984 0 0
0.204656150208711 0 0
0.2132478407636175 0 0
0.2233092952674718 0 0
0.232043182699472 0 0
0.2420959002942711 0 0
0.2507671238675491 0 0
0.2610174912402574 0 0
0.2701514320875198 0 0
0.2800873406235264 0 0
0.2892809999445735 0 0
0.2991846246540186 0 0
0.3084565904219548 0 0
0.3183281167568666 0 0
0.3276616234556467 0 0
0.337505332194016 0 0
0.3467094014245983 0 0
0.3566925779879516 0 0
0.3660275259201796 0 0
0.375940535622476 0 0
0.3854007240687141 0 0
0.395208064999157 0 0
0.4047020612674716 0 0
0.4144835052052269 0 0
0.4239958586219514 0 0
0.4337659828749511 0 0
0.4432950093130408 0 0
0.4530558949864306 0 0
0.4625988571061195 0 0
0.4723526861074335 0 0
0.4819068727732759 0 0
0.4916563083097411 0 0
0.5012182667757601 0 0
0.5109630570050829 0 0
0.5205321012567696 0 0
0.5302724714407835 0 0
0.539847700347222 0 0
0.5495848675151785 0 0