<?xml version="1.0"?>
<VTKFile type="UnstructuredGrid">
  <UnstructuredGrid>
  <Piece NumberOfPoints="1224"  NumberOfCells="2290">
    <Points>
      <DataArray type="Float64" NumberOfComponents="3" format="ascii">
0 0 0
0.6 0 0
0.6 0.2 0
21 0.2 0
21 1 0
0 1 0
0.05454545454535233 0 0
0.1090909090906768 0 0
0.1636363636359771 0 0
0.2181818181812728 0 0
0.2727272727265793 0 0
0.3272727272720317 0 0
0.3818181818176247 0 0
0.4363636363632168 0 0
0.4909090909088285 0 0
0.5454545454544089 0 0
0.6 0.03999999999991203 0
0.6 0.07999999999979179 0
0.6 0.1199999999997886 0
0.6 0.1599999999998948 0
2.392879672029748 0.2 0
2.963908519537928 0.2 0
3.447598291620293 0.2 0
3.901719660284833 0.2 0
4.337622977047518 0.2 0
4.761996749163185 0.2 0
5.178272395155593 0.2 0
5.588963517911683 0.2 0
5.995630103915746 0.2 0
6.399316522455206 0.2 0
6.800768342464689 0.2 0
7.200522906895466 0.2 0
7.598970911642602 0.2 0
7.996413818459592 0.2 0
8.393070188316408 0.2 0
8.789105633369047 0.2 0
9.184651109138482 0.2 0
9.579807751583676 0.2 0
9.974654786604685 0.2 0
10.36925428015049 0.2 0
10.76365546848909 0.2 0
11.15789730695086 0.2 0
11.55201092910812 0.2 0
11.94602113754381 0.2 0
12.33994786042537 0.2 0
12.733807058444 0.2 0
13.12761160680131 0.2 0
13.5213718591962 0.2 0
13.91509619254471 0.2 0
14.30879136631288 0.2 0
14.70246286221583 0.2 0
15.09611511616321 0.2 0
15.48975173230859 0.2 0
15.88337563410478 0.2 0
16.27698919421506 0.2 0
16.67059434258741 0.2 0
17.06419270369041 0.2 0
17.4577855647501 0.2 0
17.85137393890589 0.2 0
18.24495873485287 0.2 0
18.63854065939089 0.2 0
19.03212029896463 0.2 0
19.42569815652506 0.2 0
19.81927472071809 0.2 0
20.21285032847602 0.2 0
20.60642532318939 0.2 0
21 0.2533333333332341 0
21 0.3066666666664725 0
21 0.3599999999996274 0
21 0.413333333332804 0
21 0.4666666666659806 0
21 0.5199999999991571 0
21 0.5733333333323336 0
21 0.6266666666656895 0
21 0.6799999999991551 0
21 0.7333333333326146 0
21 0.7866666666660802 0
21 0.8399999999995775 0
21 0.8933333333330373 0
21 0.9466666666664969 0
20.60810761660728 1 0
20.21621552697381 1 0
19.82432404005316 1 0
19.43243350030911 1 0
19.04054427217935 1 0
18.64865677167266 1 0
18.25677152374069 1 0
17.8648890498465 1 0
17.47301016696124 1 0
17.08113562679439 1 0
16.68926648462615 1 0
16.29740406900174 1 0
15.90554980147571 1 0
15.51370569985713 1 0
15.1218738978296 1 0
14.73005743136266 1 0
14.33825948767436 1 0
13.94648477517337 1 0
13.55473783110604 1 0
13.16302585505498 1 0
12.77135589576224 1 0
12.37973850662477 1 0
11.98818546559325 1 0
11.59671120759341 1 0
11.20533400128262 1 0
10.81407629866937 1 0
10.42296554237159 1 0
10.03203586787685 1 0
9.641330169991317 1 0
9.25089780478889 1 0
8.860801150415625 1 0
8.471124345042556 1 0
8.081953552206015 1 0
7.693414124297674 1 0
7.305647121659777 1 0
6.918827857273588 1 0
6.53317150944682 1 0
6.148937016732411 1 0
5.766441352216109 1 0
5.386053420867797 1 0
5.008209713139649 1 0
4.633423144927149 1 0
4.262227001251919 1 0
3.895197753778911 1 0
3.532966107393545 1 0
3.176461305953896 1 0
2.826871381171257 1 0
2.486437583125368 1 0
2.158676566547551 1 0
1.848444579832865 1 0
1.558520749915682 1 0
1.292373951783514 1 0
1.050150128662604 1 0
0.8364356573941885 1 0
0.6435072818442098 1 0
0.4679872004342515 1 0
0.305251540139406 1 0
0.1503269444428771 1 0
0 0.9473684210524125 0
0 0.8947368421048248 0
0 0.8421052631576025 0
0 0.7894736842105994 0
0 0.7368421052635962 0
0 0.6842105263165927 0
0 0.6315789473695894 0
0 0.5789473684225861 0
0 0.5263157894755828 0
0 0.4736842105282874 0
0 0.4210526315806998 0
0 0.3684210526331123 0
0 0.3157894736855248 0
0 0.2631578947379374 0
0 0.21052631579035 0
0 0.1578947368427625 0
0 0.1052631578951749 0
0 0.05263157894758741 0
1.728411025638009 0.955462795473483 0
1.992171004631038 0.2394317949808221 0
4.084352305983677 0.9557759867023439 0
17.69026384142819 0.9559758769411787 0
16.10147250681843 0.9559648099769389 0
14.53414847651208 0.9559648099769389 0
12.96716841809821 0.9559648099772646 0
11.42113356405753 0.9560078743553572 0
9.85630136875066 0.9561420672712786 0
8.276283509718708 0.95627738856474 0
6.72544939714651 0.9563034567995272 0
0.09376542776201001 0.5498854761242812 0
5.384874753447233 0.2442383967812095 0
16.87942864724065 0.2421522008426663 0
15.29292310369619 0.243586373321511 0
13.71824957574304 0.24363095694403 0
12.14303720555803 0.2436741865527954 0
10.56655453248566 0.2437170671454607 0
8.987058723971435 0.2437587738062726 0
7.400082165721765 0.2442249255777628 0
1.229571292820958 0.2417757800606361 0
1.927616742244266 0.2785115072887754 0
20.62636880960166 0.5995349944823752 0
1.369831077968657 0.2791940688436214 0
1.872917265107693 0.3180386921514113 0
1.414777129653578 0.3181181454258206 0
1.813464111242242 0.3577335228902347 0
18.46812802523296 0.2416532643303031 0
1.41479305285513 0.3576683284772433 0
1.74955343142775 0.3976917483469583 0
2.13779028344508 0.3977458985417416 0
2.041824550051557 0.4382323507424581 0
2.419126975704671 0.4382172989803606 0
2.306002071971481 0.4790536480492864 0
2.672557272328187 0.4792447281197085 0
1.963380041984792 0.4817209888486334 0
0.9330461696375646 0.9660670791366374 0
5.19677759748926 0.9559852449915113 0
2.546847297172519 0.5203953730037822 0
2.907742535360925 0.5205851219036783 0
18.87370194503276 0.9563165682871465 0
0.067002839228623 0.2894490564426765 0
2.769803927894074 0.5622881188475496 0
3.128937456769136 0.5621981517123112 0
0.1041469513421278 0.7091098825652095 0
0.3163608148855858 0.04723774929726795 0
3.273494586596152 0.5200372393771872 0
3.491532177112998 0.562505099575485 0
2.984587437004141 0.6041261864689124 0
2.632241757002078 0.6041581669226386 0
20.64802483731172 0.4393531299125908 0
3.647720021373272 0.5199435586712576 0
3.862148235139868 0.5624873891767795 0
1.056157403764115 0.3174350849704655 0
1.092027345073485 0.3576870257641042 0
4.02501239871733 0.5195844107098163 0
4.238088476776638 0.5621174250913318 0
2.839348774350931 0.6460588488486728 0
2.495788649608695 0.6462390077748084 0
4.064695110314188 0.6067218912904607 0
4.446387388220357 0.6047738158182728 0
4.617429473476253 0.5617915498272615 0
4.824582263110896 0.6045430073239006 0
5.00019714593189 0.5614360364847856 0
5.205692811396708 0.6046345614192383 0
5.383966064654481 0.5613114208485291 0
5.589057411771853 0.604758732930365 0
5.765880726702006 0.5597386087889248 0
5.974822925738088 0.6042836632406788 0
6.160944606540327 0.5607219500906248 0
6.363346650745465 0.6043040651294929 0
6.550578972604986 0.5598592244124957 0
6.752218174780963 0.6040638744783449 0
6.940958424383156 0.5595216793632644 0
7.141865361360806 0.6038781229769293 0
7.331792966360965 0.5600604284234054 0
7.532074341614269 0.6038664424080111 0
7.719318981545599 0.55874807111347 0
7.922391537323893 0.6035341865995129 0
8.112260975337213 0.5586520846649797 0
8.313872740476247 0.6034054551655909 0
8.506261855729516 0.558835304845746 0
8.705698805939965 0.6032503772964327 0
8.898753814887458 0.5587079795953892 0
9.097644859542442 0.6030926920218221 0
9.291056842313436 0.5580480170404921 0
9.489703083886443 0.6028436706904448 0
9.683441519347436 0.5577680566445021 0
9.881888830144975 0.6026435181305781 0
10.07590114413647 0.5575726351194972 0
10.27419651795708 0.6024617369905624 0
10.46842978621283 0.5573842056888257 0
10.66662940160616 0.6022873884346892 0
10.86101517133225 0.5572075399874397 0
11.059115473928 0.6021111834258887 0
11.25364111942628 0.5570246051384745 0
11.45164786208882 0.6019307913070558 0
11.64629606282726 0.5568475628142857 0
11.84423488007054 0.6017522495250318 0
12.03897791989464 0.5566653603575672 0
12.23687829352226 0.601574020443024 0
12.43168277622057 0.5564884669211013 0
12.62953865634034 0.601395113412113 0
12.82440240300678 0.5563067813822595 0
13.02218339094065 0.6012129143420911 0
13.21712821741198 0.5561292537946573 0
13.41487817312711 0.601032757987411 0
13.60986872788212 0.5559477304122714 0
13.80763417804966 0.600855564813206 0
14.0026252500375 0.5557710179709322 0
14.20037181041521 0.6006760179252703 0
14.39538423051514 0.5555900146741853 0
14.59309843736687 0.6004921726308964 0
14.78814399809153 0.5554125217101814 0
14.98584389335557 0.6003111949874665 0
15.18090886876287 0.5552312296013228 0
15.37857348945366 0.6001298880828497 0
15.57367546104001 0.5550546947866846 0
15.77133678411965 0.599950595338254 0
15.96646530361513 0.5548708301001631 0
16.16415528031458 0.5997713467128002 0
16.35933123218362 0.5547000681173012 0
16.55706633655325 0.5996004731097838 0
16.75232735958414 0.5545095609010697 0
16.95007570989486 0.5994220729206983 0
17.14554876191594 0.5543494429014709 0
17.34321347427023 0.5993228147833797 0
17.53917352059107 0.5541346321759457 0
17.73736100723935 0.5992395038842441 0
17.93386199834875 0.5540180644105763 0
20.68357402824348 0.7598964409357507 0
18.13297193469608 0.5990918128353608 0
0.8255980731485696 0.3159793431387367 0
0.8644028104247472 0.357715436029677 0
0.6737119469534526 0.3157219358498637 0
0.6996160541091689 0.3576135465858128 0
16.75361335209544 0.643990885448769 0
15.18346663005035 0.6444881680698032 0
5.790096873594859 0.6487487015028032 0
13.61262470742307 0.6452136474256573 0
12.04208157106962 0.6459229900926835 0
0.5631627194793341 0.3150377509381005 0
0.5757911943140133 0.3574251905568473 0
0.7093110238377569 0.4002519798591844 0
10.4723072061345 0.6466170330762969 0
7.342259041142884 0.6479317947648683 0
8.904775398582178 0.6473399689389928 0
4.652509694671437 0.6483605753517908 0
2.696559626865232 0.6883083412871458 0
2.360586878369718 0.6885103796531055 0
18.32972067453733 0.5527758280498023 0
6.341145110968168 0.5148848291986879 0
17.93577592944399 0.6438096025956825 0
18.33212086823198 0.6437140715169269 0
8.302885480953481 0.5138574114565649 0
9.874548779820993 0.5115839513085039 0
11.44595329782346 0.5109012431757174 0
13.01742798347497 0.510388685431229 0
0.5762821565546635 0.4001745965167012 0
0.7040038224550988 0.4433206937839571 0
14.58893442170103 0.5096846626216972 0
[...]
    <PointData>
      <DataArray type="Float64" NumberOfComponents="3" Name="Velocity" format="ascii">
-nan -nan 0
-nan -nan 0
-nan -nan 0
-nan -nan 0
-nan -nan 0
-nan -nan 0
-nan -nan 0
-nan -nan 0
-nan -nan 0
-nan -nan 0
-nan -nan 0
-nan -nan 0
-nan -nan 0
-nan -nan 0
-nan -nan 0
-nan -nan 0
-nan -nan 0
-nan -nan 0
-nan -nan 0
-nan -nan 0
-nan -nan 0
-nan -nan 0
-nan -nan 0
-nan -nan 0
-nan -nan 0
-nan -nan 0
-nan -nan 0
-nan -nan 0
-nan -nan 0
-nan -nan 0
-nan -nan 0
-nan -nan 0
-nan -nan 0
-nan -nan 0
-nan -nan 0
-nan -nan 0
-nan -nan 0
-nan -nan 0
-nan -nan 0
-nan -nan 0
-nan -nan 0
-nan -nan 0
-nan -nan 0
-nan -nan 0
-nan -nan 0
-nan -nan 0
-nan -nan 0
-nan -nan 0
-nan -nan 0
-nan -nan 0
-nan -nan 0
-nan -nan 0
-nan -nan 0
-nan -nan 0
-nan -nan 0
-nan -nan 0
-nan -nan 0
-nan -nan 0
-nan -nan 0
-nan -nan 0
-nan -nan 0
-nan -nan 0
-nan -nan 0
-nan -nan 0
-nan -nan 0
-nan -nan 0
-nan -nan 0
-nan -nan 0
-nan -nan 0
-nan -nan 0
-nan -nan 0
-nan -nan 0
-nan -nan 0
-nan -nan 0
-nan -nan 0
-nan -nan 0
-nan -nan 0
-nan -nan 0
-nan -nan 0
-nan -nan 0
-nan -nan 0
-nan -nan 0
-nan -nan 0
-nan -nan 0
-nan -nan 0
-nan -nan 0
-nan -nan 0
-nan -nan 0
-nan -nan 0
-nan -nan 0
-nan -nan 0
-nan -nan 0
-nan -nan 0
-nan -nan 0
-nan -nan 0
-nan -nan 0
-nan -nan 0
-nan -nan 0
-nan -nan 0
-nan -nan 0
-nan -nan 0
-nan -nan 0
-nan -nan 0
-nan -nan 0
-nan -nan 0
-nan -nan 0
-nan -nan 0
-nan -nan 0
-nan -nan 0
-nan -nan 0
-nan -nan 0
-nan -nan 0
-nan -nan 0
-nan -nan 0
-nan -nan 0
-nan -nan 0
-nan -nan 0
-nan -nan 0
-nan -nan 0
-nan -nan 0
-nan -nan 0
-nan -nan 0
-nan -nan 0
-nan -nan 0
-nan -nan 0
-nan -nan 0
-nan -nan 0
-nan -nan 0
-nan -nan 0
-nan -nan 0
-nan -nan 0
-nan -nan 0
-nan -nan 0
-nan -nan 0
-nan -nan 0
-nan -nan 0
-nan -nan 0
-nan -nan 0
-nan -nan 0
-nan -nan 0
-nan -nan 0
-nan -nan 0
-nan -nan 0
-nan -nan 0
-nan -nan 0
-nan -nan 0
-nan -nan 0
-nan -nan 0
-nan -nan 0
-nan -nan 0
-nan -nan 0
-nan -nan 0
-nan -nan 0
-nan -nan 0
-nan -nan 0
-nan -nan 0
-nan -nan 0
-nan -nan 0
-nan -nan 0
-nan -nan 0
-nan -nan 0
-nan -nan 0
-nan -nan 0
-nan -nan 0
-nan -nan 0
-nan -nan 0
-nan -nan 0
-nan -nan 0
-nan -nan 0
-nan -nan 0
-nan -nan 0
-nan -nan 0
-nan -nan 0
-nan -nan 0
-nan -nan 0
-nan -nan 0
-nan -nan 0
-nan -nan 0
-nan -nan 0
-nan -nan 0
-nan -nan 0
-nan -nan 0
-nan -nan 0
-nan -nan 0
-nan -nan 0
-nan -nan 0
-nan -nan 0
-nan -nan 0
-nan -nan 0
-nan -nan 0
-nan -nan 0
-nan -nan 0
-nan -nan 0
-nan -nan 0
-nan -nan 0
-nan -nan 0
-nan -nan 0
-nan -nan 0
-nan -nan 0
-nan -nan 0
-nan -nan 0
-nan -nan 0
-nan -nan 0
-nan -nan 0
-nan -nan 0
-nan -nan 0
-nan -nan 0
-nan -nan 0
-nan -nan 0
-nan -nan 0
-nan -nan 0
-nan -nan 0
-nan -nan 0
-nan -nan 0
-nan -nan 0
-nan -nan 0
-nan -nan 0
-nan -nan 0
-nan -nan 0
-nan -nan 0
-nan -nan 0
-nan -nan 0
-nan -nan 0
-nan -nan 0
-nan -nan 0
-nan -nan 0
-nan -nan 0
-nan -nan 0
-nan -nan 0
-nan -nan 0
-nan -nan 0
-nan -nan 0
-nan -nan 0
-nan -nan 0
-nan -nan 0
-nan -nan 0
-nan -nan 0
-nan -nan 0
-nan -nan 0
-nan -nan 0
-nan -nan 0
-nan -nan 0
-nan -nan 0
-nan -nan 0
-nan -nan 0
-nan -nan 0
-nan -nan 0
-nan -nan 0
-nan -nan 0
-nan -nan 0
-nan -nan 0
-nan -nan 0
-nan -nan 0
-nan -nan 0
-nan -nan 0
-nan -nan 0
-nan -nan 0
-nan -nan 0
-nan -nan 0
-nan -nan 0
-nan -nan 0
-nan -nan 0
-nan -nan 0
-nan -nan 0
-nan -nan 0
-nan -nan 0
-nan -nan 0
-nan -nan 0
-nan -nan 0
-nan -nan 0
-nan -nan 0
-nan -nan 0
-nan -nan 0
-nan -nan 0
-nan -nan 0
-nan -nan 0
-nan -nan 0
-nan -nan 0
-nan -nan 0
-nan -nan 0
-nan -nan 0
-nan -nan 0
-nan -nan 0
-nan -nan 0
-nan -nan 0
-nan -nan 0
-nan -nan 0
-nan -nan 0
-nan -nan 0
-nan -nan 0
-nan -nan 0
-nan -nan 0
-nan -nan 0
-nan -nan 0
-nan -nan 0
-nan -nan 0
-nan -nan 0
-nan -nan 0
-nan -nan 0
-nan -nan 0
-nan -nan 0
-nan -nan 0
-nan -nan 0
-nan -nan 0
-nan -nan 0
-nan -nan 0
-nan -nan 0
-nan -nan 0
-nan -nan 0
-nan -nan 0
-nan -nan 0
-nan -nan 0
-nan -nan 0
-nan -nan 0
-nan -nan 0
-nan -nan 0
-nan -nan 0
-nan -nan 0
-nan -nan 0
-nan -nan 0
-nan -nan 0
-nan -nan 0
-nan -nan 0
-nan -nan 0
-nan -nan 0
-nan -nan 0
-nan -nan 0
-nan -nan 0
-nan -nan 0
-nan -nan 0
-nan -nan 0
-nan -nan 0
-nan -nan 0
-nan -nan 0
-nan -nan 0
-nan -nan 0
-nan -nan 0
-nan -nan 0
-nan -nan 0
-nan -nan 0
-nan -nan 0
-nan -nan 0
-nan -nan 0
-nan -nan 0
-nan -nan 0
-nan -nan 0
-nan -nan 0
-nan -nan 0
-nan -nan 0
-nan -nan 0
-nan -nan 0
-nan -nan 0
-nan -nan 0
-nan -nan 0
-nan -nan 0
-nan -nan 0
-nan -nan 0
-nan -nan 0
-nan -nan 0
-nan -nan 0
-nan -nan 0
-nan -nan 0
-nan -nan 0
-nan -nan 0
-nan -nan 0
-nan -nan 0
-nan -nan 0
-nan -nan 0
-nan -nan 0
-nan -nan 0
-nan -nan 0
-nan -nan 0
-nan -nan 0
-nan -nan 0
-nan -nan 0
-nan -nan 0
-nan -nan 0
-nan -nan 0
-nan -nan 0
-nan -nan 0
-nan -nan 0
-nan -nan 0
-nan -nan 0
-nan -nan 0
-nan -nan 0
-nan -nan 0
-nan -nan 0
-nan -nan 0
-nan -nan 0
-nan -nan 0
-nan -nan 0
-nan -nan 0
-nan -nan 0
-nan -nan 0
-nan -nan 0
-nan -nan 0
-nan -nan 0
-nan -nan 0
-nan -nan 0
-nan -nan 0
-nan -nan 0
-nan -nan 0
-nan -nan 0
-nan -nan 0
-nan -nan 0
-nan -nan 0
-nan -nan 0
-nan -nan 0
-nan -nan 0
-nan -nan 0
-nan -nan 0
-nan -nan 0
-nan -nan 0
-nan -nan 0
-nan -nan 0
-nan -nan 0
-nan -nan 0
-nan -nan 0
-nan -nan 0
-nan -nan 0
-nan -nan 0
-nan -nan 0
-nan -nan 0
-nan -nan 0
-nan -nan 0
-nan -nan 0
-nan -nan 0
-nan -nan 0
-nan -nan 0
-nan -nan 0
-nan -nan 0
-nan -nan 0
-nan -nan 0
-nan -nan 0
-nan -nan 0
-nan -nan 0
-nan -nan 0
-nan -nan 0
-nan -nan 0
-nan -nan 0
-nan -nan 0
-nan -nan 0
-nan -nan 0
-nan -nan 0
-nan -nan 0
-nan -nan 0
-nan -nan 0
-nan -nan 0
-nan -nan 0
-nan -nan 0
-nan -nan 0
-nan -nan 0
-nan -nan 0
-nan -nan 0
-nan -nan 0
-nan -nan 0
-nan -nan 0
-nan -nan 0
-nan -nan 0
-nan -nan 0
-nan -nan 0
-nan -nan 0
-nan -nan 0
-nan -nan 0
-nan -nan 0
-nan -nan 0
-nan -nan 0
-nan -nan 0
-nan -nan 0
-nan -nan 0
-nan -nan 0
-nan -nan 0
-nan -nan 0
-nan -nan 0
-nan -nan 0
-nan -nan 0
-nan -nan 0
-nan -nan 0
-nan -nan 0
-nan -nan 0
-nan -nan 0
-nan -nan 0
-nan -nan 0
-nan -nan 0
-nan -nan 0
-nan -nan 0
-nan -nan 0
-nan -nan 0
-nan -nan 0
-nan -nan 0
-nan -nan 0
-nan -nan 0
-nan -nan 0
-nan -nan 0
-nan -nan 0
-nan -nan 0
-nan -nan 0
-nan -nan 0
-nan -nan 0
-nan -nan 0
-nan -nan 0
-nan -nan 0
-nan -nan 0
-nan -nan 0
-nan -nan 0
-nan -nan 0
-nan -nan 0
-nan -nan 0
-nan -nan 0
-nan -nan 0
-nan -nan 0
-nan -nan 0
-nan -nan 0
-nan -nan 0
-nan -nan 0
-nan -nan 0
-nan -nan 0
-nan -nan 0
-nan -nan 0
-nan -nan 0
-nan -nan 0
-nan -nan 0
-nan -nan 0
-nan -nan 0
-nan -nan 0
-nan -nan 0
-nan -nan 0
-nan -nan 0
-nan -nan 0
-nan -nan 0
-nan -nan 0
-nan -nan 0
-nan -nan 0
-nan -nan 0
-nan -nan 0
-nan -nan 0
-nan -nan 0
-nan -nan 0
-nan -nan 0
-nan -nan 0
-nan -nan 0
-nan -nan 0
-nan -nan 0
-nan -nan 0
-nan -nan 0
-nan -nan 0
-nan -nan 0
-nan -nan 0
-nan -nan 0
-nan -nan 0
-nan -nan 0
-nan -nan 0
-nan -nan 0
-nan -nan 0
-nan -nan 0
-nan -nan 0
-nan -nan 0
-nan -nan 0
-nan -nan 0
-nan -nan 0
-nan -nan 0
-nan -nan 0
-nan -nan 0
-nan -nan 0
-nan -nan 0
-nan -nan 0
-nan -nan 0
-nan -nan 0
-nan -nan 0
-nan -nan 0
-nan -nan 0
-nan -nan 0
-nan -nan 0
-nan -nan 0
-nan -nan 0
-nan -nan 0
-nan -nan 0
-nan -nan 0
-nan -nan 0
-nan -nan 0
-nan -nan 0
-nan -nan 0
-nan -nan 0
-nan -nan 0
-nan -nan 0
-nan -nan 0
-nan -nan 0
-nan -nan 0
-nan -nan 0
-nan -nan 0
-nan -nan 0
-nan -nan 0
-nan -nan 0
-nan -nan 0
-nan -nan 0
-nan -nan 0
-nan -nan 0
-nan -nan 0
-nan -nan 0
-nan -nan 0
-nan -nan 0
-nan -nan 0
-nan -nan 0
-nan -nan 0
-nan -nan 0
-nan -nan 0
-nan -nan 0
-nan -nan 0
-nan -nan 0
-nan -nan 0
-nan -nan 0
-nan -nan 0
-nan -nan 0
-nan -nan 0
-nan -nan 0
-nan -nan 0
-nan -nan 0
-nan -nan 0
-nan -nan 0
-nan -nan 0
-nan -nan 0
-nan -nan 0
-nan -nan 0
-nan -nan 0
-nan -nan 0
-nan -nan 0
-nan -nan 0
-nan -nan 0
-nan -nan 0
-nan -nan 0
-nan -nan 0
-nan -nan 0
-nan -nan 0
-nan -nan 0
-nan -nan 0
-nan -nan 0
-nan -nan 0
-nan -nan 0
-nan -nan 0
-nan -nan 0
-nan -nan 0
-nan -nan 0
-nan -nan 0
-nan -nan 0
-nan -nan 0
-nan -nan 0
-nan -nan 0
-nan -nan 0
-nan -nan 0
-nan -nan 0
-nan -nan 0
-nan -nan 0
-nan -nan 0
-nan -nan 0
-nan -nan 0
-nan -nan 0
-nan -nan 0
-nan -nan 0
-nan -nan 0
-nan -nan 0
-nan -nan 0
-nan -nan 0
-nan -nan 0
-nan -nan 0
-nan -nan 0
-nan -nan 0
-nan -nan 0
-nan -nan 0
-nan -nan 0
-nan -nan 0
-nan -nan 0
-nan -nan 0
-nan -nan 0
-nan -nan 0
-nan -nan 0
-nan -nan 0
-nan -nan 0
-nan -nan 0
-nan -nan 0
-nan -nan 0
-nan -nan 0
-nan -nan 0
-nan -nan 0
-nan -nan 0
-nan -nan 0
-nan -nan 0
-nan -nan 0
-nan -nan 0
-nan -nan 0
-nan -nan 0
-nan -nan 0
-nan -nan 0
-nan -nan 0
-nan -nan 0
-nan -nan 0
-nan -nan 0
-nan -nan 0
-nan -nan 0
-nan -nan 0
-nan -nan 0
-nan -nan 0
-nan -nan 0
-nan -nan 0
-nan -nan 0
-nan -nan 0
-nan -nan 0
-nan -nan 0
-nan -nan 0
-nan -nan 0
-nan -nan 0
-nan -nan 0
-nan -nan 0
-nan -nan 0
-nan -nan 0
-nan -nan 0
-nan -nan 0
-nan -nan 0
-nan -nan 0
-nan -nan 0
-nan -nan 0
-nan -nan 0
-nan -nan 0
-nan -nan 0
-nan -nan 0
-nan -nan 0
-nan -nan 0
-nan -nan 0
-nan -nan 0
-nan -nan 0
-nan -nan 0
-nan -nan 0
-nan -nan 0
-nan -nan 0
-nan -nan 0
-nan -nan 0
-nan -nan 0
-nan -nan 0
-nan -nan 0
-nan -nan 0
-nan -nan 0
-nan -nan 0
-nan -nan 0
-nan -nan 0
-nan -nan 0
-nan -nan 0
-nan -nan 0
-nan -nan 0
-nan -nan 0
-nan -nan 0
-nan -nan 0
-nan -nan 0
-nan -nan 0
-nan -nan 0
-nan -nan 0
-nan -nan 0
-nan -nan 0
-nan -nan 0
-nan -nan 0
-nan -nan 0
-nan -nan 0
-nan -nan 0
-nan -nan 0
-nan -nan 0
-nan -nan 0
-nan -nan 0
-nan -nan 0
-nan -nan 0
-nan -nan 0
-nan -nan 0
-nan -nan 0
-nan -nan 0
-nan -nan 0
-nan -nan 0
-nan -nan 0
-nan -nan 0
-nan -nan 0
-nan -nan 0
-nan -nan 0
-nan -nan 0
-nan -nan 0
-nan -nan 0
-nan -nan 0
-nan -nan 0
-nan -nan 0
-nan -nan 0
-nan -nan 0
-nan -nan 0
-nan -nan 0
-nan -nan 0
-nan -nan 0
-nan -nan 0
-nan -nan 0
-nan -nan 0
-nan -nan 0
-nan -nan 0
-nan -nan 0
-nan -nan 0
-nan -nan 0
-nan -nan 0
-nan -nan 0
-nan -nan 0
-nan -nan 0
-nan -nan 0
-nan -nan 0
-nan -nan 0
-nan -nan 0
-nan -nan 0
-nan -nan 0
-nan -nan 0
-nan -nan 0
-nan -nan 0
-nan -nan 0
-nan -nan 0
-nan -nan 0
-nan -nan 0
-nan -nan 0
-nan -nan 0
-nan -nan 0
-nan -nan 0
-nan -nan 0
-nan -nan 0
-nan -nan 0
-nan -nan 0
-nan -nan 0
-nan -nan 0
-nan -nan 0
-nan -nan 0
-nan -nan 0
-nan -nan 0
-nan -nan 0
-nan -nan 0
-nan -nan 0
-nan -nan 0
-nan -nan 0
-nan -nan 0
-nan -nan 0
-nan -nan 0
-nan -nan 0
-nan -nan 0
-nan -nan 0
-nan -nan 0
-nan -nan 0
-nan -nan 0
-nan -nan 0
-nan -nan 0
-nan -nan 0
-nan -nan 0
-nan -nan 0
-nan -nan 0
-nan -nan 0
-nan -nan 0
-nan -nan 0
-nan -nan 0
-nan -nan 0
-nan -nan 0
-nan -nan 0
-nan -nan 0
-nan -nan 0
-nan -nan 0
-nan -nan 0
-nan -nan 0
-nan -nan 0
-nan -nan 0
-nan -nan 0
-nan -nan 0
-nan -nan 0
-nan -nan 0
-nan -nan 0
-nan -nan 0
-nan -nan 0
-nan -nan 0
-nan -nan 0
-nan -nan 0
-nan -nan 0
-nan -nan 0
-nan -nan 0
-nan -nan 0
-nan -nan 0
-nan -nan 0
-nan -nan 0
-nan -nan 0
-nan -nan 0
-nan -nan 0
-nan -nan 0
-nan -nan 0
-nan -nan 0
-nan -nan 0
-nan -nan 0
-nan -nan 0
-nan -nan 0
-nan -nan 0
-nan -nan 0
-nan -nan 0
-nan -nan 0
-nan -nan 0
-nan -nan 0
-nan -nan 0
-nan -nan 0
-nan -nan 0
-nan -nan 0
-nan -nan 0
-nan -nan 0
-nan -nan 0
-nan -nan 0
-nan -nan 0
-nan -nan 0
-nan -nan 0
-nan -nan 0
-nan -nan 0
-nan -nan 0
-nan -nan 0
-nan -nan 0
-nan -nan 0
-nan -nan 0
-nan -nan 0
-nan -nan 0
-nan -nan 0
-nan -nan 0
-nan -nan 0
-nan -nan 0
-nan -nan 0
-nan -nan 0
-nan -nan 0
-nan -nan 0
-nan -nan 0
-nan -nan 0
-nan -nan 0
-nan -nan 0
-nan -nan 0
-nan -nan 0
-nan -nan 0
-nan -nan 0
-nan -nan 0
-nan -nan 0
-nan -nan 0
-nan -nan 0
-nan -nan 0
-nan -nan 0
-nan -nan 0
-nan -nan 0
-nan -nan 0
-nan -nan 0
-nan -nan 0
-nan -nan 0
-nan -nan 0
-nan -nan 0
-nan -nan 0
-nan -nan 0
-nan -nan 0
-nan -nan 0
-nan -nan 0
-nan -nan 0
-nan -nan 0
-nan -nan 0
-nan -nan 0
-nan -nan 0
-nan -nan 0
-nan -nan 0
-nan -nan 0
-nan -nan 0
-nan -nan 0
-nan -nan 0
-nan -nan 0
-nan -nan 0
-nan -nan 0
-nan -nan 0
-nan -nan 0
-nan -nan 0
-nan -nan 0
-nan -nan 0
-nan -nan 0
-nan -nan 0
-nan -nan 0
-nan -nan 0
-nan -nan 0
-nan -nan 0
-nan -nan 0
-nan -nan 0
-nan -nan 0
-nan -nan 0
-nan -nan 0
-nan -nan 0
-nan -nan 0
-nan -nan 0
-nan -nan 0
-nan -nan 0
-nan -nan 0
-nan -nan 0
-nan -nan 0
-nan -nan 0
-nan -nan 0
-nan -nan 0
-nan -nan 0
-nan -nan 0
-nan -nan 0
-nan -nan 0
-nan -nan 0
-nan -nan 0
-nan -nan 0
-nan -nan 0
-nan -nan 0
-nan -nan 0
-nan -nan 0
-nan -nan 0
-nan -nan 0
-nan -nan 0
-nan -nan 0
-nan -nan 0
-nan -nan 0
-nan -nan 0
-nan -nan 0
-nan -nan 0
-nan -nan 0
-nan -nan 0
-nan -nan 0
-nan -nan 0
-nan -nan 0
-nan -nan 0
-nan -nan 0
-nan -nan 0
-nan -nan 0
-nan -nan 0
-nan -nan 0
-nan -nan 0
-nan -nan 0
-nan -nan 0
-nan -nan 0
-nan -nan 0
-nan -nan 0
-nan -nan 0
-nan -nan 0
-nan -nan 0
-nan -nan 0
-nan -nan 0
-nan -nan 0
-nan -nan 0
-nan -nan 0
-nan -nan 0
-nan -nan 0
-nan -nan 0
-nan -nan 0
-nan -nan 0
-nan -nan 0
-nan -nan 0
-nan -nan 0
-nan -nan 0
-nan -nan 0
-nan -nan 0
-nan -nan 0
-nan -nan 0
-nan -nan 0
-nan -nan 0
-nan -nan 0
-nan -nan 0
-nan -nan 0
-nan -nan 0
-nan -nan 0
-nan -nan 0
-nan -nan 0
-nan -nan 0
-nan -nan 0
-nan -nan 0
-nan -nan 0
-nan -nan 0
-nan -nan 0
-nan -nan 0
-nan -nan 0
-nan -nan 0
-nan -nan 0
-nan -nan 0
-nan -nan 0
-nan -nan 0
-nan -nan 0
-nan -nan 0
-nan -nan 0
-nan -nan 0
-nan -nan 0
-nan -nan 0
-nan -nan 0
-nan -nan 0
-nan -nan 0
-nan -nan 0
-nan -nan 0
-nan -nan 0
-nan -nan 0
-nan -nan 0
-nan -nan 0
-nan -nan 0
-nan -nan 0
-nan -nan 0
-nan -nan 0
-nan -nan 0
-nan -nan 0
-nan -nan 0
-nan -nan 0
-nan -nan 0
-nan -nan 0
-nan -nan 0
-nan -nan 0
-nan -nan 0
-nan -nan 0
-nan -nan 0
-nan -nan 0
-nan -nan 0
-nan -nan 0
-nan -nan 0
-nan -nan 0
-nan -nan 0
-nan -nan 0
-nan -nan 0
-nan -nan 0
-nan -nan 0
-nan -nan 0
-nan -nan 0
-nan -nan 0
-nan -nan 0
-nan -nan 0
-nan -nan 0
-nan -nan 0
-nan -nan 0
-nan -nan 0
-nan -nan 0
-nan -nan 0
-nan -nan 0
-nan -nan 0
-nan -nan 0
-nan -nan 0
-nan -nan 0
-nan -nan 0
-nan -nan 0
-nan -nan 0
-nan -nan 0
-nan -nan 0
-nan -nan 0
-nan -nan 0
-nan -nan 0
-nan -nan 0
-nan -nan 0
-nan -nan 0
-nan -nan 0
-nan -nan 0
-nan -nan 0
-nan -nan 0
-nan -nan 0
-nan -nan 0
-nan -nan 0
-nan -nan 0
-nan -nan 0
-nan -nan 0
-nan -nan 0
-nan -nan 0
-nan -nan 0
-nan -nan 0
-nan -nan 0
-nan -nan 0
-nan -nan 0
-nan -nan 0
-nan -nan 0
-nan -nan 0
-nan -nan 0
-nan -nan 0
-nan -nan 0
-nan -nan 0
-nan -nan 0
-nan -nan 0
-nan -nan 0
-nan -nan 0
-nan -nan 0
-nan -nan 0
-nan -nan 0
-nan -nan 0
-nan -nan 0
-nan -nan 0
-nan -nan 0
-nan -nan 0
-nan -nan 0
-nan -nan 0
-nan -nan 0
-nan -nan 0
-nan -nan 0
-nan -nan 0
-nan -nan 0
-nan -nan 0
-nan -nan 0
-nan -nan 0
-nan -nan 0
-nan -nan 0
-nan -nan 0
-nan -nan 0
-nan -nan 0
-nan -nan 0
-nan -nan 0
-nan -nan 0
-nan -nan 0
-nan -nan 0
-nan -nan 0
-nan -nan 0
-nan -nan 0
-nan -nan 0
-nan -nan 0
-nan -nan 0
-nan -nan 0
-nan -nan 0
-nan -nan 0
-nan -nan 0
-nan -nan 0
-nan -nan 0
-nan -nan 0
-nan -nan 0
-nan -nan 0
-nan -nan 0
-nan -nan 0
-nan -nan 0
-nan -nan 0
-nan -nan 0
-nan -nan 0
-nan -nan 0
-nan -nan 0
-nan -nan 0
-nan -nan 0
-nan -nan 0
-nan -nan 0
-nan -nan 0
-nan -nan 0
      </DataArray> 
      <DataArray type="Float64" NumberOfComponents="3" Name="MeshDisp" format="ascii">
0 0 0
0 0 0
0 0 0
1 0 0
1 0 0
0 0 0
0 0 0
0 0 0
0 0 0
0 0 0
0 0 0
0 0 0
0 0 0
0 0 0
0 0 0
0 0 0
0 0 0
0 0 0
0 0 0
0 0 0
0.09435296096208097 0 0
0.1225433033591957 0 0
0.1460143336111506 0 0
0.1680748994534711 0 0
0.1892725722619034 0 0
0.2099229397255855 0 0
0.2301791702656765 0 0
0.2501627865550657 0 0
0.2699499086160181 0 0
0.2895917093870637 0 0
0.3091246828907119 0 0
0.3285750633823602 0 0
0.3479618761687208 0 0
0.3672997881322252 0 0
0.3865994313837913 0 0
0.4058688630048741 0 0
0.4251144545586557 0 0
0.4443411269754679 0 0
0.4635527351383847 0 0
0.4827522989541232 0 0
0.5019422140659813 0 0
0.5211243758792926 0 0
0.5403002992231705 0 0
0.5594711908872793 0 0
0.5786380204928692 0 0
0.597801564620521 0 0
0.6169624497238049 0 0
0.6361211795704943 0 0
0.6552781617463527 0 0
0.6744337251387797 0 0
0.6935881364651448 0 0
0.7127416115582903 0 0
0.7318943257812817 0 0
0.7510464213771265 0 0
0.7701980137897138 0 0
0.7893491969222565 0 0
0.8085000498146113 0 0
0.8276506350978214 0 0
0.8468010020670212 0 0
0.8659511949355176 0 0
0.8851012480932443 0 0
0.9042511900741502 0 0
0.9234010453497263 0 0
0.9425508376954441 0 0
0.9617005835050246 0 0
0.98085029948642 0 0
1 0 0
1 0 0
1 0 0
0.9999999999999999 0 0
1 0 0
0.9999999999999999 0 0
1 0 0
1 0 0
0.9999999999999999 0 0
0.9999999999999999 0 0
1 0 0
1 0 0
1 0 0
1 0 0
0.9809321528601961 0 0
0.961864320013494 0 0
0.9427965164922798 0 0
0.9237287590567258 0 0
0.9046610654388487 0 0
0.8855934558799001 0 0
0.8665259559218327 0 0
0.847458590936861 0 0
0.8283914006753885 0 0
0.8093244217124591 0 0
0.790257705393603 0 0
0.771191316360286 0 0
0.7521253237794168 0 0
0.7330598258291603 0 0
0.7139949263256523 0 0
0.694930772986493 0 0
0.6758675208884041 0 0
0.6568053991228918 0 0
0.6377446284534207 0 0
0.6186855591816233 0 0
0.5996285342698593 0 0
0.5805740672023721 0 0
0.561522731045072 0 0
0.5424752281411266 0 0
0.5234324473668903 0 0
0.5043954811426465 0 0
0.4853656647104079 0 0
0.4663446589597975 0 0
0.4473345509774971 0 0
0.4283377422427042 0 0
0.4093572678463533 0 0
0.3903972215950911 0 0
0.3714617955098614 0 0
0.352557087357364 0 0
0.3336899570127697 0 0
0.314868928859185 0 0
0.2961044708167513 0 0
0.277409204511735 0 0
0.2587986380001404 0 0
0.2402908157781128 0 0
0.2219067271775668 0 0
0.2036693617059431 0 0
0.1855987159575183 0 0
0.1677090222219192 0 0
0.1500065611502933 0 0
0.1325056670513493 0 0
0.1152509893502953 0 0
0.09835473608980494 0 0
0.08205618750923858 0 0
0.06676275624546715 0 0
0.05275780995698693 0 0
0.04041062096883859 0 0
0.02984850410813402 0 0
0.02166521328267766 0 0
0.01520037159515077 0 0
0.01019719171181424 0 0
0.006258262783446446 0 0
0.002944061753945227 0 0
0 0 0
0 0 0
0 0 0
0 0 0
0 0 0
0 0 0
0 0 0
0 0 0
0 0 0
0 0 0
0 0 0
0 0 0
0 0 0
0 0 0
0 0 0
0 0 0
0 0 0
0 0 0
0.06091246695549364 0 0
0.07346116437841295 0 0
0.176932795798889 0 0
0.8389620573935214 0 0
0.7616581046014094 0 0
0.6853986612060372 0 0
0.6091559540467805 0 0
0.5339323530815251 0 0
0.4577941519593664 0 0
0.3809170800424456 0 0
0.3054599266561795 0 0
0.001236465442150006 0 0
0.2402322488636576 0 0
0.7995102022579593 0 0
0.7223174665154142 0 0
0.6457004272502993 0 0
0.5690571701718834 0 0
0.4923521054601297 0 0
0.4155004340165591 0 0
0.3382847813603189 0 0
0.03335273722858426 0 0
0.07017681258843404 0 0
0.9818206662668422 0 0
0.04098666582999812 0 0
0.06740066837744288 0 0
0.04357832150195413 0 0
0.06439466221233446 0 0
0.876809680824998 0 0
0.04381183213133662 0 0
0.06118728249672176 0 0
0.08097334645732698 0 0
0.07611216766295154 0 0
0.09516569203278318 0 0
0.08945554624371131 0 0
0.1077939118025801 0 0
0.07216380638290762 0 0
0.02524421057054867 0 0
0.2310815937303239 0 0
0.1014969319518839 0 0
0.1194146996059684 0 0
0.8965432144029664 0 0
0.0003366586141334028 0 0
0.1125570510601464 0 0
0.1302852719705431 0 0
0.001754334029785027 0 0
-0.0001275922241136769 0 0
0.1374016253434477 0 0
0.1480490382261186 0 0
0.1231530009273974 0 0
0.1056995353415862 0 0
0.9828743581565772 0 0
0.1556841500228061 0 0
0.1661267621729456 0 0
0.02495552131269443 0 0
0.02728151474744723 0 0
0.1740612508005294 0 0
0.1844302739226064 0 0
0.1159528649448791 0 0
0.09888358639930479 0 0
0.1759876761418176 0 0
0.1945672033172496 0 0
0.2028902842212438 0 0
0.2129705011433174 0 0
0.2215152781020493 0 0
0.231514382747142 0 0
0.2401884964679326 0 0
0.250167631133247 0 0
0.2587711726560334 0 0
0.2689375137712079 0 0
0.2779934559036821 0 0
0.2878415186044795 0 0
0.296951483015903 0 0
0.3067624091769303 0 0
0.3159457302458382 0 0
0.3257210237881825 0 0
0.3349621109488592 0 0
0.3447069669794602 0 0
0.3538175101949229 0 0
0.3636981733289455 0 0
0.3729364276356933 0 0
0.3827460146236293 0 0
0.3921068657513939 0 0
0.4018106351809937 0 0
0.4112038858866812 0 0
0.420881093752161 0 0
0.4302917133075324 0 0
0.4399570100442551 0 0
0.4493835134204262 0 0
0.4590391310056594 0 0
0.4684789601642275 0 0
0.4781271851281712 0 0
0.4875777649966666 0 0
0.4972213307551242 0 0
0.5066793307074984 0 0
0.516318064319946 0 0
0.5257828700430505 0 0
0.5354170514197912 0 0
0.5448878201690943 0 0
0.5545186965785094 0 0
0.5639940798017297 0 0