<?xml version="1.0"?>
<VTKFile type="UnstructuredGrid">
  <UnstructuredGrid>
  <Piece NumberOfPoints="1224"  NumberOfCells="2290">
    <Points>
      <DataArray type="Float64" NumberOfComponents="3" format="ascii">
0 0 0
0.6 0 0
0.6 0.2 0
3 0.2 0
3 1 0
0 1 0
0.05454545454535233 0 0
0.1090909090906768 0 0
0.1636363636359771 0 0
0.2181818181812728 0 0
0.2727272727265793 0 0
0.3272727272720317 0 0
0.3818181818176247 0 0
0.4363636363632168 0 0
0.4909090909088285 0 0
0.5454545454544089 0 0
0.6 0.03999999999991203 0
0.6 0.07999999999979179 0
0.6 0.1199999999997886 0
0.6 0.1599999999998948 0
0.6510638297871261 0.2 0
0.7021276595742618 0.2 0
0.7531914893613819 0.2 0
0.8042553191485237 0.2 0
0.8553191489356438 0.2 0
0.9063829787228289 0.2 0
0.957446808509926 0.2 0
1.008510638297009 0.2 0
1.059574468084092 0.2 0
1.110638297871174 0.2 0
1.161702127658257 0.2 0
1.21276595744534 0.2 0
1.263829787232422 0.2 0
1.314893617019505 0.2 0
1.365957446806588 0.2 0
1.417021276593671 0.2 0
1.468085106380754 0.2 0
1.519148936167923 0.2 0
1.570212765955006 0.2 0
1.621276595742088 0.2 0
1.672340425529171 0.2 0
1.723404255316254 0.2 0
1.774468085103337 0.2 0
1.825531914890624 0.2 0
1.876595744677951 0.2 0
1.927659574465349 0.2 0
1.978723404252714 0.2 0
2.029787234040074 0.2 0
2.080851063827477 0.2 0
2.131914893614798 0.2 0
2.182978723402204 0.2 0
2.234042553189523 0.2 0
2.285106382976928 0.2 0
2.336170212764247 0.2 0
2.387234042551653 0.2 0
2.438297872338975 0.2 0
2.489361702126377 0.2 0
2.540425531913739 0.2 0
2.591489361701102 0.2 0
2.642553191488421 0.2 0
2.693617021275827 0.2 0
2.744680851063146 0.2 0
2.795744680850551 0.2 0
2.84680851063787 0.2 0
2.897872340425276 0.2 0
2.948936170212618 0.2 0
3 0.2533333333332341 0
3 0.3066666666664725 0
3 0.3599999999996274 0
3 0.413333333332804 0
3 0.4666666666659806 0
3 0.5199999999991571 0
3 0.5733333333323336 0
3 0.6266666666656895 0
3 0.6799999999991551 0
3 0.7333333333326146 0
3 0.7866666666660802 0
3 0.8399999999995775 0
3 0.8933333333330373 0
3 0.9466666666664969 0
2.949152542373491 1 0
2.898305084746983 1 0
2.847457627120474 1 0
2.796610169493702 1 0
2.745762711866469 1 0
2.694915254239208 1 0
2.644067796611963 1 0
2.593220338985156 1 0
2.542372881358647 1 0
2.491525423732018 1 0
2.44067796610481 1 0
2.389830508477549 1 0
2.338983050850287 1 0
2.288135593223026 1 0
2.237288135595765 1 0
2.186440677968504 1 0
2.135593220341243 1 0
2.084745762713982 1 0
2.033898305086721 1 0
1.983050847459614 1 0
1.932203389832729 1 0
1.881355932205844 1 0
1.830508474578958 1 0
1.779661016952073 1 0
1.728813559325189 1 0
1.677966101698303 1 0
1.627118644071418 1 0
1.576271186444533 1 0
1.525423728817648 1 0
1.474576271190575 1 0
1.423728813563314 1 0
1.372881355936053 1 0
1.322033898308791 1 0
1.27118644068153 1 0
1.220338983054269 1 0
1.169491525427008 1 0
1.118644067799747 1 0
1.067796610172485 1 0
1.016949152545224 1 0
0.9661016949179628 1 0
0.9152542372907018 1 0
0.8644067796634407 1 0
0.8135593220361792 1 0
0.7627118644089181 1 0
0.7118644067816566 1 0
0.661016949154396 1 0
0.6101694915271345 1 0
0.5593220338998739 1 0
0.5084745762726124 1 0
0.4576271186453518 1 0
0.4067796610180903 1 0
0.3559322033908292 1 0
0.3050847457635677 1 0
0.2542372881363066 1 0
0.2033898305090456 1 0
0.1525423728817841 1 0
0.101694915254523 1 0
0.05084745762726151 1 0
0 0.9473684210524125 0
0 0.8947368421048248 0
0 0.8421052631576025 0
0 0.7894736842105994 0
0 0.7368421052635962 0
0 0.6842105263165927 0
0 0.6315789473695894 0
0 0.5789473684225861 0
0 0.5263157894755828 0
0 0.4736842105282874 0
0 0.4210526315806998 0
0 0.3684210526331123 0
0 0.3157894736855248 0
0 0.2631578947379374 0
0 0.21052631579035 0
0 0.1578947368427625 0
0 0.1052631578951749 0
0 0.05263157894758741 0
0.4374856279758046 0.955462795473483 0
0.625531914893563 0.2394317949808221 0
0.7891616249544176 0.9557759867023439 0
2.570562443351098 0.9559758769411787 0
2.364406779663917 0.9559648099769389 0
2.161016949154874 0.9559648099769389 0
1.957627118646171 0.9559648099772646 0
1.756856606547665 0.9560078743553572 0
1.553415402058453 0.9561420672712786 0
1.347457627122422 0.95627738856474 0
1.144067796613377 0.9563034567995272 0
0.04146670856173688 0.5498854761242812 0
0.9828861012149002 0.2442383967812095 0
2.465390809289578 0.2421522008426663 0
2.259572257543314 0.243586373321511 0
2.055319178697841 0.24363095694403 0
1.851066099915384 0.2436741865527954 0
1.646810778591931 0.2437170671454607 0
1.442550972205278 0.2437587738062726 0
1.238275543433999 0.2442249255777628 0
0.5808319854219957 0.2417757800606361 0
0.6039807146029165 0.2785115072887754 0
2.951522810440164 0.5995349944823752 0
0.5591131416216563 0.2791940688436214 0
0.5817690965011905 0.3180386921514113 0
0.5363223429032008 0.3181181454258206 0
0.5590799034518541 0.3577335228902347 0
2.671507320584846 0.2416532643303031 0
0.5129751095268966 0.3576683284772433 0
0.5360042291720796 0.3976917483469583 0
0.5824744072527975 0.3977458985417416 0
0.5593202208963615 0.4382323507424581 0
0.6062221806132498 0.4382172989803606 0
0.5831398502988122 0.4790536480492864 0
0.630245509211025 0.4792447281197085 0
0.5373735766893435 0.4817209888486334 0
0.2780994584865757 0.9660670791366374 0
0.9407829849899363 0.9559852449915113 0
0.6069171020766708 0.5203953730037822 0
0.6544691944766102 0.5205851219036783 0
2.724115018794794 0.9563165682871465 0
0.04341732373162228 0.2894490564426765 0
0.6304562046384772 0.5622881188475496 0
0.6786259291441818 0.5621981517123112 0
0.03938236249337418 0.7091098825652095 0
0.2999999999993055 0.04723774929726795 0
0.7024556039582556 0.5200372393771872 0
0.726826368578132 0.562505099575485 0
0.6545296629344706 0.6041261864689124 0
0.6061411599039735 0.6041581669226386 0
2.954333097254252 0.4393531299125908 0
0.7512905139641642 0.5199435586712576 0
0.7757938242112172 0.5624873891767795 0
0.4902278874550028 0.3174350849704655 0
0.4661669324669476 0.3576870257641042 0
0.8003371868304782 0.5195844107098163 0
0.8251782158071723 0.5621174250913318 0
0.6300572939290072 0.6460588488486728 0
0.581677101888915 0.6462390077748084 0
0.7994632498085218 0.6067218912904607 0
0.850068894442807 0.6047738158182728 0
0.8747482025846163 0.5617915498272615 0
0.8998102571129438 0.6045430073239006 0
0.924588798996443 0.5614360364847856 0
0.9497125983499418 0.6046345614192383 0
0.9744389394813738 0.5613114208485291 0
0.9997656958801404 0.604758732930365 0
1.024028015453996 0.5597386087889248 0
1.050046148741532 0.6042836632406788 0
1.075213347289947 0.5607219500906248 0
1.100604808237692 0.6043040651294929 0
1.125727120818654 0.5598592244124957 0
1.151165990249003 0.6040638744783449 0
1.176319565514503 0.5595216793632644 0
1.201793840633129 0.6038781229769293 0
1.226960854257978 0.5600604284234054 0
1.252470704079807 0.6038664424080111 0
1.277198987313166 0.55874807111347 0
1.303148970446812 0.6035341865995129 0
1.328130525802366 0.5586520846649797 0
1.353966012915828 0.6034054551655909 0
1.379205474149696 0.558835304845746 0
1.404820923589671 0.6032503772964327 0
1.430092956912838 0.5587079795953892 0
1.455686300628245 0.6030926920218221 0
1.480963489515269 0.5580480170404921 0
1.506562983627252 0.6028436706904448 0
1.531847734917255 0.5577680566445021 0
1.557453558526421 0.6026435181305781 0
1.582745756648754 0.5575726351194972 0
1.608358176126191 0.6024617369905624 0
1.633656322435163 0.5573842056888257 0
1.659277805706528 0.6022873884346892 0
1.684577462424181 0.5572075399874397 0
1.710203504633815 0.6021111834258887 0
1.735506494091908 0.5570246051384745 0
1.761134606493805 0.6019307913070558 0
1.786441498808711 0.5568475628142857 0
1.812072359676459 0.6017522495250318 0
1.837381834584306 0.5566653603575672 0
1.863017119880456 0.601574020443024 0
1.888326681794851 0.5564884669211013 0
1.913963858781491 0.601395113412113 0
1.939274704592935 0.5563067813822595 0
1.964908406083961 0.6012129143420911 0
1.990224566339525 0.5561292537946573 0
2.015859329864652 0.601032757987411 0
2.041177190815608 0.5559477304122714 0
2.066818109147928 0.600855564813206 0
2.09213259478423 0.5557710179709322 0
2.117774443326183 0.6006760179252703 0
2.143088896138059 0.5555900146741853 0
2.168729305797513 0.6004921726308964 0
2.194045774061603 0.5554125217101814 0
2.219686577151481 0.6003111949874665 0
2.245003702950199 0.5552312296013228 0
2.270641766736839 0.6001298880828497 0
2.295962173634055 0.5550546947866846 0
2.321601310982481 0.599950595338254 0
2.346923922781879 0.5548708301001631 0
2.372568004594504 0.5997713467128002 0
2.397895756972162 0.5547000681173012 0
2.423546697517365 0.5996004731097838 0
2.448884659670238 0.5545095609010697 0
2.474538141419978 0.5994220729206983 0
2.499902931415869 0.5543494429014709 0
2.525546234724433 0.5993228147833797 0
2.550973655834774 0.5541346321759457 0
2.576685338327378 0.5992395038842441 0
2.602182482443039 0.5540180644105763 0
2.958944511946492 0.7598964409357507 0
2.628014314012249 0.5990918128353608 0
0.4429170888396284 0.3159793431387367 0
0.4184631156771032 0.357715436029677 0
0.3946070818022522 0.3157219358498637 0
0.3697276561976696 0.3576135465858128 0
2.449044355814981 0.643990885448769 0
2.24531935830005 0.6444881680698032 0
1.024857369602972 0.6487487015028032 0
2.041498164113345 0.6452136474256573 0
1.837701628146142 0.6459229900926835 0
0.3455853078837237 0.3150377509381005 0
0.3204780172155196 0.3574251905568473 0
0.3449438693484468 0.4002519798591844 0
1.633970683060678 0.6466170330762969 0
1.227333380683899 0.6479317947648683 0
1.430444030483603 0.6473399689389928 0
0.875196942148915 0.6483605753517908 0
0.6057010339261732 0.6883083412871458 0
0.5571396249147901 0.6885103796531055 0
2.653543252321963 0.5527758280498023 0
1.099471497978971 0.5148848291986879 0
2.602427017093663 0.6438096025956825 0
2.653851606946175 0.6437140715169269 0
1.353138019780104 0.5138574114565649 0
1.556762689169365 0.5115839513085039 0
1.760509743411542 0.5109012431757174 0
1.964341412665395 0.510388685431229 0
0.2953909602266698 0.4001745965167012 0
[...]
    <PointData>
      <DataArray type="Float64" NumberOfComponents="3" Name="Velocity" format="ascii">
3.000000066464235 0 0
0 0 0
0 0 0
3.240044373282986 0 0
3.239853684951639 0 0
3.000000000146994 0 0
3.000000076909493 0 0
2.999998630418026 0 0
2.999998229417399 0 0
3.000099246255081 0 0
3.000334712484129 0 0
2.989756997281425 0 0
2.834716392229125 0 0
2.131706878755032 0 0
0.9961297408350061 0 0
0.2294578082809595 0 0
0 0.1270941925225055 0
0 0.2295335774875853 0
0 0.3605850860056093 0
0 0.5213139591885628 0
1.405922004629179 0 0
1.96753216279443 0 0
2.27694350746383 0 0
2.501773003576337 0 0
2.659446829231442 0 0
2.78740681431926 0 0
2.870942046449117 0 0
2.925287469576107 0 0
2.958733633949973 0 0
2.977763016989786 0 0
2.989365674217936 0 0
2.995188437164635 0 0
2.9979094550931 0 0
2.999221937520601 0 0
2.999730728506251 0 0
2.999938090437706 0 0
2.99999286021948 0 0
3.000002592959166 0 0
3.000001891674147 0 0
3.000000287727991 0 0
2.999999904675527 0 0
2.999999949016818 0 0
3.000000003522755 0 0
3.000000003774046 0 0
2.99999999891168 0 0
3.00000000022594 0 0
2.999999999962998 0 0
2.999999999984243 0 0
3.000000000027896 0 0
3.000000000006968 0 0
2.999999999943157 0 0
2.999999999990719 0 0
3.00000000019366 0 0
2.99999999985737 0 0
2.999999999681796 0 0
3.000000000878389 0 0
2.999999997791277 0 0
3.000000012018873 0 0
3.000000020161421 0 0
2.999999604477764 0 0
2.999997520463449 0 0
3.000003698425997 0 0
3.000143398775605 0 0
3.001232156381969 0 0
3.008565013766906 0 0
3.0572430123524 0 0
3.240971863557403 0.001715315954430118 0
3.230821675144925 0.001153511953242325 0
3.232294025361866 0.0009579551798010183 0
3.232607760374638 8.142897271072216e-05 0
3.235494735973576 -0.0004598754759323048 0
3.23739405539178 -0.0006711184935407573 0
3.234870907867041 -0.00034073361313852 0
3.233867850328441 -0.0004697169534472255 0
3.237543542495191 -3.819546683024357e-05 0
3.235611011124756 -6.588741821220624e-06 0
3.23642409922263 -0.0002860093634684963 0
3.232820339649596 -0.0007460426588092937 0
3.230050668311413 -0.001810615992819642 0
3.240922931002063 -0.001335140385394286 0
3.052553199105011 0 0
3.009161628863434 0 0
3.001320352281871 0 0
3.000151215508978 0 0
3.000008799803207 0 0
2.999998623983828 0 0
2.999999556519011 0 0
2.999999997210368 0 0
3.00000001121794 0 0
2.999999998326026 0 0
3.000000000838182 0 0
2.999999999673727 0 0
2.999999999872972 0 0
3.000000000175502 0 0
2.999999999986695 0 0
2.999999999956289 0 0
3.000000000009205 0 0
3.000000000008436 0 0
3.000000000000902 0 0
2.999999999993323 0 0
3.000000000000783 0 0
3.00000000000778 0 0
2.999999999987984 0 0
3.000000000012846 0 0
2.999999999987259 0 0
3.000000000001376 0 0
3.000000000030485 0 0
2.999999999967477 0 0
2.999999999903748 0 0
3.000000000179643 0 0
3.000000000472149 0 0
2.999999999138851 0 0
2.999999997513916 0 0
2.999999999424404 0 0
3.000000006693282 0 0
3.000000014802152 0 0
3.000000019413717 0 0
3.000000016967387 0 0
3.000000018396798 0 0
3.000000030206007 0 0
3.000000047568083 0 0
3.0000000449571 0 0
3.000000025048212 0 0
3.000000006585822 0 0
2.999999996436534 0 0
2.999999995638961 0 0
2.999999998388862 0 0
3.000000000252238 0 0
3.00000000055825 0 0
2.999999999656325 0 0
3.000000000067192 0 0
3.000000000008852 0 0
2.999999999976021 0 0
3.000000000018764 0 0
3.000000000005479 0 0
3.000000000020348 0 0
3.000000000119336 0 0
3.00000000012911 0 0
2.999999999940222 0 0
3.000000000110598 0 0
2.999999999568104 0 0
3.000000000310203 0 0
2.999999999777168 0 0
3.000000000481801 0 0
3.000000000505072 0 0
3.000000001910169 0 0
3.000000001779136 0 0
2.999999996706871 0 0
2.999999993180928 0 0
2.999999993643602 0 0
2.999999992335653 0 0
2.999999996440794 0 0
3.000000001866729 0 0
3.000000042767279 0 0
3.000000070904657 0 0
3.000000069748038 0 0
3.000000000327824 -7.048400062871595e-10 0
1.358098835987829 0.5747772770379994 0
3.000000060046772 -1.945497686691691e-07 0
3.000000013377453 2.65265705509414e-09 0
3.0000000003313 2.283101837245627e-11 0
3.000000000017313 -5.287843758812029e-12 0
3.000000000012161 -1.380529726816221e-12 0
2.999999999993112 9.402699521701041e-13 0
3.000000000056967 1.517457483558984e-10 0
3.00000000029829 5.320704823943785e-09 0
3.00000000946398 -9.462299392885408e-08 0
2.999999999910038 2.899229089879128e-10 0
2.910575972202752 0.03474895533252107 0
2.999999999382933 -1.661270596986768e-10 0
2.999999999914957 -1.160967669080051e-11 0
3.00000000000064 -1.204376217688166e-12 0
2.999999999791116 1.69815565581117e-10 0
2.999999987442627 5.035288847712042e-08 0
2.999983051862336 -1.833618369285088e-05 0
2.997337634970072 0.0004023846932124191 0
1.230099371006006 0.7679732057146063 0
1.789260183485653 0.7414691070544472 0
3.070784081908993 -0.0003268761757456572 0
1.852991538537553 0.6852446322268123 0
2.210082473704821 0.6078796461378977 0
2.4241827027982 0.3974252857238766 0
2.627806605042473 0.3191730467153317 0
2.999998640458289 6.349958676514523e-08 0
2.799242481055765 0.1510731662026341 0
2.877299040221522 0.1107613439150966 0
2.782164269663973 0.2247720022224742 0
2.932142963593543 0.07187756361661962 0
2.882412832641965 0.1420488909048893 0
2.96513205774805 0.04254142907702906 0
2.941021553173375 0.08180235619533058 0
2.985178275103332 0.01650691907485095 0
2.999999999924331 7.671725405792923e-11 0
2.999999999542788 -2.960781047153648e-07 0
2.983418439217352 0.02304502683536826 0
2.97234437427466 0.04355398451935973 0
3.00000212366505 -9.91406457083726e-07 0
3.000000004466334 -2.780747712598704e-09 0
2.992721866333556 0.01143064711204646 0
2.987895320392931 0.02152834799202379 0
3.000000000678739 1.007158306990724e-10 0
2.999086570741006 0.0001371422323072613 0
2.961956924223608 0.07191209632680248 0
2.983656012467563 0.035244548211199 0
2.996949323496053 0.005388260733192887 0
2.998477234937671 0.002432928134190159 0
3.082046789569697 -0.0002795115070693833 0
2.961602346833557 0.09071561972482424 0
2.983636270272801 0.04578940781817205 0
2.70732587018543 0.1781459794699101 0
2.927271288868596 0.04945368998713869 0
2.969814169906595 0.09251474093761333 0
2.987747750890079 0.04706449335372166 0
2.999383444103893 0.001101582364777555 0
2.999750323265882 0.0004113824453563078 0
2.993720603103849 0.02066750099691182 0
2.995540499054409 0.02176339420613804 0
2.993103376685712 0.0431818373847693 0
2.997943163550648 0.0195127783154875 0
2.998099769259973 0.03567440330089526 0
2.999968875212583 0.01549454546638531 0
3.001576475929086 0.02663646659517768 0
3.001165689491752 0.01109309619523568 0
3.003214093911587 0.0181778681587242 0
3.00154532915063 0.007213140261908091 0
3.003244057421896 0.01080096115059312 0
3.001346570388424 0.004133584583452996 0
3.002559528565202 0.00595708028438474 0
3.000937621883562 0.002125064734648154 0
3.001664145832711 0.002903695356226407 0
3.000544644349027 0.0009712359200255683 0
3.000900702955437 0.001220347699645018 0
3.000262664928928 0.0003830275338578155 0
3.000421105456744 0.0004479630678612885 0
3.000101957748686 0.000125717413046871 0
3.000152104895361 0.000128990130690567 0
3.000028306557582 3.185384652671469e-05 0
3.000038847956869 2.652262347882169e-05 0
3.000003362716459 5.222678014055432e-06 0
3.000004849719174 3.26201602362528e-06 0
2.999998406979909 1.123374963760124e-07 0
2.999998659177464 5.084538617238004e-08 0
2.9999989400733 -1.955759762422528e-07 0
2.999999030703477 4.128238952066044e-09 0
2.999999763476087 -4.691912635123417e-08 0
2.999999790147737 2.03969657688812e-08 0
3.000000019146343 -1.099645303641376e-08 0
3.000000018021781 -8.11154360290459e-09 0
3.000000025125622 -4.468444282277457e-09 0
3.000000019404005 -8.827866355576992e-09 0
2.99999999767907 1.533883261366858e-09 0
2.999999997487923 2.170993144415656e-09 0
2.999999999287213 1.287085210690138e-10 0
2.999999999572625 3.282872735472419e-10 0
3.000000000410414 -2.663400233218137e-10 0
3.000000000183875 -3.091949911027639e-10 0
2.999999999910287 1.037112654036066e-10 0
2.999999999969345 8.358534318950179e-11 0
3.000000000008603 -1.59965480452548e-11 0
3.000000000010971 -1.399304249502172e-11 0
2.999999999993085 -1.927453068120972e-13 0
2.999999999993637 2.273400452264194e-12 0
3.000000000011332 -1.580327249459883e-12 0
2.999999999997891 1.039879161081255e-12 0
2.999999999995896 2.977880140619798e-12 0
3.000000000001548 -2.871694532027064e-12 0
2.999999999995274 -1.620902987894327e-12 0
3.000000000013619 8.581234679660006e-13 0
2.999999999986235 2.588534272950112e-13 0
2.999999999996724 2.490493199154823e-12 0
3.000000000035201 -1.895237793199963e-12 0
2.999999999937115 -7.489184793418735e-13 0
3.00000000005168 4.344646108276473e-12 0
3.000000000036865 -3.465298738961388e-12 0
2.999999999821606 -1.87860742782017e-12 0
3.000000000227095 3.082660583262889e-12 0
2.999999999950488 -5.374239159212669e-12 0
2.999999999670297 -8.086734553675157e-14 0
3.00000000063896 4.986793622337761e-12 0
2.999999999782872 -1.14290354690249e-13 0
2.999999998529498 8.640597669159498e-12 0
3.000000001443109 -2.426415169189137e-11 0
3.000000008380687 -1.180532927650758e-10 0
3.000000008882832 -2.998769640685017e-10 0
2.999999979304975 3.9969046115401e-10 0
2.999999883354995 1.059448643829497e-09 0
3.091361310405922 -8.209468268326336e-05 0
2.999999626880887 7.063934496501965e-09 0
2.903585163647859 0.05318918294185693 0
2.981746074089875 0.01165441527115682 0
2.97968553260298 0.01032983981346969 0
2.996950340985343 0.001863607089130269 0
2.999999999938278 1.055919730570506e-11 0
2.999999999930405 -3.593912509014056e-12 0
3.000529786253893 0.003987088726009198 0
3.000000000001414 -1.287896403492073e-12 0
2.999999999848692 9.435428292532758e-11 0
2.998500199081997 0.0007216265520291612 0
2.999982609107117 2.572048092352834e-05 0
2.999675744458479 0.0002518555620539917 0
3.000000027044059 -6.778070905034696e-10 0
3.000126655450975 0.0002584481671820094 0
2.999998021472891 -2.770346741368979e-07 0
2.998570148128619 0.009016605778170187 0
2.99990191484614 0.0001792965484637532 0
2.999970803848194 5.094899704868882e-05 0
2.999999304509298 2.215890686287012e-08 0
3.005245163283115 0.01407706586740944 0
2.999999890815399 3.437794507632174e-09 0
2.999999340071083 5.908025271808702e-09 0
3.000154174045119 8.275188465095954e-05 0
2.999999224248054 1.897650439605103e-07 0
2.99999999906482 2.139556860861305e-09 0
2.999999999982964 -1.228611886437674e-11 0
3.000016862740347 -5.765412511662594e-06 0
2.999982416524178 2.418133709044436e-05 0
2.99999999998062 -4.482224116944136e-12 0
2.9999999999328 3.031587744104056e-13 0
2.999999978781764 -6.467285897251953e-11 0
2.932505648401468 0.1653614703875027 0
2.999639352374792 0.0563328913293363 0
2.999999647809268 7.720868339237922e-09 0
2.999999496044395 -2.17068635661457e-08 0
2.999989616391898 2.011843358860741e-05 0
2.999973657202323 5.554161593960352e-05 0
2.999998419540831 3.500349313280693e-06 0
2.999995057233289 9.572999886101676e-06 0
3.000000281818627 -9.715413816493913e-08 0
3.000000343135453 3.215816692953286e-07 0
3.000000259164469 -3.393114459182465e-07 0
3.000000481179649 -5.266305900296378e-07 0
3.000000043905637 -8.190472550237778e-08 0
3.000000112344258 -1.682708811934616e-07 0
2.999999991232818 -6.364526372042323e-10 0
2.99999999685776 -1.305375883750468e-08 0
0.1926396756009328 0.412348066685806 0
2.893154240258273 0.04601753769777568 0
2.999999995958938 5.671993935736492e-09 0
3.000094446098795 -2.211113679471003e-05 0
3.000638626313797 9.967779750898298e-05 0
3.000006997221299 -3.373817508270097e-06 0
2.622280506217595 0.1364425322047252 0
2.999999992174886 8.399178523411973e-09 0
2.999999363027728 9.765153916272378e-09 0
2.999999901567162 3.158631645814728e-09 0
3.000001631448771 -7.830420199738239e-08 0
3.000012474755032 -6.196248795412286e-07 0
2.190773590291432 0.2465902522889822 0
2.999999752241234 7.562619348198233e-07 0
3.000016155109003 -2.305753891741406e-06 0
3.000000001690033 -9.69116024053814e-10 0
3.000000017788825 -3.687342009822842e-09 0
2.999730463929591 9.378669247706195e-05 0
3.000103389050516 -2.310707787366661e-05 0
3.000000000204278 -1.205355226410645e-10 0
3.000000009325942 -3.324084623460077e-08 0
3.00000000001317 1.006718306286941e-12 0
3.000000000016632 -2.784261135792487e-13 0
2.999999998746394 4.068568422460625e-11 0
2.99999977914994 -1.102349808861364e-07 0
3.000000000022066 1.404607949516597e-11 0
3.0000000000528 5.536913167263942e-12 0
3.000000000363239 -2.97191789686468e-11 0
3.00000268711866 -6.091804511833878e-07 0
2.999999984998384 -2.868636201023843e-09 0
2.972879675879192 0.009854871353123526 0
2.99963402000776 -6.88776494364114e-05 0
3.000011230724876 2.327823468206963e-05 0
3.00000000000179 7.780015600900577e-13 0
2.999999999618179 -7.494710094852993e-10 0
2.999999999122194 7.561441802618916e-11 0
2.999999983372642 -2.517720461509797e-07 0
3.000000013117054 -5.79545172867629e-09 0
2.999999999922571 1.143075381044576e-11 0
2.999999999996738 -2.005569949960417e-11 0
3.000000000011927 1.271923090601184e-12 0
2.999999999972959 1.35825913843415e-11 0
3.000431416879236 0.001336270863544929 0
2.999999999993713 -8.653577733631746e-13 0
3.000000000029789 -2.273751697654293e-10 0
3.000000009077414 -8.753751297354399e-09 0
3.000004746447789 5.988818682398785e-07 0
3.000000000222394 8.543210805263655e-12 0
3.000000000049344 1.920878132778817e-12 0
3.002253320647916 0.003152554449305379 0
3.000000027851558 -3.193282030329642e-09 0
3.000000819607864 -7.115020208737312e-07 0
3.000643667264011 -5.70364101905997e-05 0
2.601623408757424 0.0133329749626894 0
2.999999998614446 2.990133628106669e-12 0
3.000005653397422 -2.480935681240368e-06 0
2.999999991768818 6.394951690292661e-09 0
2.706996858068456 0.3481771890229713 0
3.000000694938621 -3.853261145167684e-07 0
3.000000001007729 -6.980003475935896e-10 0
3.0000000003185 -2.248725299031367e-08 0
2.999999986410946 1.427436822340092e-08 0
3.000047738830558 -1.144135762682057e-06 0
2.999999667896639 7.708147938045287e-09 0
2.99999998630682 8.889954260103523e-10 0
3.00000011767922 -1.806434863099948e-07 0
2.999999997596091 5.161742269472588e-09 0
2.999988252790002 2.123405792018153e-05 0
3.000163365257702 -6.496814996094929e-06 0
3.000000000868495 -1.133979719993221e-09 0
2.999698606312684 0.0002866276654415438 0
3.000236647503269 -1.461671867413429e-05 0
3.000064793392675 -1.631219202972582e-05 0
3.000010785572514 -3.665783371824921e-06 0
3.000011647441708 -1.715398551203925e-07 0
3.000154700074752 -7.977227696397608e-07 0
3.081984575396923 0.001372490538249806 0
3.06619476996603 -0.001232206191086803 0
2.999984202023768 2.58321378643122e-05 0
2.999999999437441 3.629800768979734e-10 0
2.953537903177675 0.1514856918685761 0
2.899458192109392 0.2431415341307461 0
2.936583031848715 0.2036438346292601 0
3.000054648811341 -2.137414674036911e-06 0
2.998927074575091 0.002134148924566651 0
1.483600714818851 0.6688099132083568 0
2.999806231739322 0.0002229339970565876 0
2.999999931375468 -1.85158665509562e-08 0
2.999999873430476 3.498264359965634e-08 0
2.999999874555856 3.055668293427519e-08 0
3.00000166795705 -1.05901673138706e-06 0
2.999999999888347 3.942861414416506e-10 0
2.868929485170943 0.2820757999135601 0
2.917043302161395 0.2189784541569388 0
2.806750392316483 0.3457734998833213 0
3.000545791144982 -2.044025282324717e-05 0
3.000188671558477 -1.765436074092874e-06 0
3.00000000002886 -3.047701794861686e-10 0
2.999999999445077 2.626628099262041e-10 0
2.999999909787602 5.337007027483646e-09 0
3.00000001045594 1.322209061149618e-10 0
3.000000007498245 -2.62651895662659e-10 0
3.000000000099567 -1.422213483654531e-10 0
2.999999998595229 5.425576411336261e-11 0
3.000000000294488 1.089852719844566e-12 0
3.000000000495297 -3.607261534038098e-12 0
2.999999999548557 5.553165002152959e-12 0
3.000000000062035 -7.642616111813459e-12 0
3.000000000183852 8.957183739356313e-14 0
2.999999999797413 -4.136849394906507e-12 0
3.000000000057538 2.985572773997462e-11 0
3.000000000042438 -1.019595880913687e-11 0
2.999999999953302 -2.240723395410867e-11 0
3.000000000040432 1.525673016586574e-11 0
2.999999999990564 -4.474394106933201e-12 0
2.999999999978754 -4.662984700484557e-13 0
3.000000000011909 8.374802392812837e-12 0
3.000000000006468 -7.099259856743445e-12 0
2.999999999994067 9.682514688342289e-13 0
2.999999999989802 2.287329243866138e-12 0
3.000000000012953 -4.208103640994384e-12 0
3.000000000008908 3.153759297483796e-12 0
2.999999999980339 8.026878149507592e-13 0
3.00000000000199 -3.55020893502024e-12 0
3.000000000017698 2.308494306167768e-12 0
2.99999999998471 7.373447985828916e-13 0
2.999999999986945 -2.779375931630725e-12 0
3.000000000029114 4.247636889326565e-12 0
3.000000000014478 5.72701926205266e-12 0
2.999999999966704 -2.168017468907734e-11 0
2.999999999988966 -1.990238706294056e-11 0
2.999999999957037 6.14612945441406e-11 0
2.999999999913006 4.255298020884466e-11 0
3.000000000450711 -5.493182395574082e-11 0
3.00000000036346 8.646855850209163e-11 0
2.999999998980938 -6.353402818828237e-10 0
2.999999999893765 -6.714116020910913e-10 0
2.999999997379502 1.912211290441917e-09 0
2.999999997310105 2.078824895968839e-10 0
3.000000009478062 8.944088065920063e-09 0
3.000000001093778 6.394057963226341e-09 0
3.000000037497215 6.528246304662488e-09 0
3.000000019855047 1.177825943448281e-08 0
3.00000003334867 -4.843648257389921e-08 0
3.000000036708599 -1.20688297486512e-08 0
2.999999904611999 -2.360525641840173e-07 0
2.999999999411918 -1.15598813743639e-07 0
2.999999539480947 -5.370680035782402e-07 0
2.999999841145564 -3.212451230400253e-07 0
2.99999910364483 -2.870612918478463e-07 0
2.999999567597873 -3.676129059665622e-07 0
2.999999032961506 2.174151347705861e-06 0
2.999999292402537 3.192261651456176e-07 0
2.999999728316288 1.010320995865233e-05 0
2.999999036436334 2.532434445024994e-06 0
3.000001217514321 2.784488613844239e-05 0
2.999998765012512 7.320635665987132e-06 0
3.000002767970293 5.907506457959528e-05 0
2.999998502926835 1.588577277221377e-05 0
3.000003136814142 0.0001085795317029209 0
2.999997895667033 3.072136867051479e-05 0
2.999997392648114 0.0001805703691324572 0
2.99999486455045 5.093609377669035e-05 0
2.999978209534369 0.0002589151909852811 0
2.99998875146583 6.463765142577539e-05 0
2.999948664033549 0.0002986533277017069 0
2.999985272506032 5.407079302432675e-05 0
2.999937754121424 0.0002266686096497835 0
2.999989812031681 2.885738645223786e-05 0
2.99995574116264 0.0001273312373311851 0
2.999994850998778 1.391899849360471e-05 0
3.000048112063288 -1.088494447350015e-06 0
3.000480865782269 -5.642503994632023e-06 0
2.999999987408894 -3.185861530496887e-08 0
2.99999997300116 2.413525489025944e-08 0
3.00025280039634 -2.885445778542478e-05 0
2.998785951550787 0.0003828158098226248 0
3.001315352781678 -3.396612331087212e-05 0
2.999975363236017 6.52845496170815e-05 0
2.999998097753267 5.4341197152491e-06 0
2.999834693221977 0.000448271351590845 0
2.999999124589446 1.066464037580572e-07 0
3.001589703767445 -1.534150787506745e-05 0
3.000528744307974 2.168974197371224e-06 0
3.003716652613426 1.688256480092225e-05 0
3.001370539179869 -4.571248000358216e-05 0
3.000174974661189 -4.643207004175538e-06 0
3.000531546162124 -3.220590207800703e-05 0
3.000056789125122 -3.126849627225942e-06 0
3.000201688122636 -8.940279649723992e-06 0
3.000015467787942 -4.480074848255501e-07 0
3.000059345745252 1.875500220125557e-06 0
3.000002023071592 3.496788188131552e-07 0
3.000692890408399 8.869893895939532e-06 0
2.999999434933579 1.276718475421625e-08 0
2.999999236630895 9.61195227700373e-09 0
2.999991929608703 1.690357912722619e-05 0
2.999888943563841 0.0001466291234064994 0
2.999999958270259 1.862275024152286e-08 0
2.99999836986001 3.327597796802035e-06 0
2.999999906437726 1.510441626342724e-08 0
3.000000000070797 2.322915526380566e-10 0
0.474943754823885 0.08696150761865147 0
2.999999595417945 -3.277697835166544e-09 0
2.9999998938473 -1.237459780666632e-08 0
2.999999981346231 -1.422066057101627e-09 0
3.000000012097093 -5.291075330630257e-10 0
3.000000008732216 2.08456718070812e-10 0
3.000000000442093 2.559310045255052e-10 0