<?xml version="1.0"?>
<VTKFile type="UnstructuredGrid">
  <UnstructuredGrid>
  <Piece NumberOfPoints="1224"  NumberOfCells="2290">
    <Points>
      <DataArray type="Float64" NumberOfComponents="3" format="ascii">
0 0 0
0.6 0 0
0.6 0.2 0
3 0.2 0
3 1 0
0 1 0
0.05454545454535233 0 0
0.1090909090906768 0 0
0.1636363636359771 0 0
0.2181818181812728 0 0
0.2727272727265793 0 0
0.3272727272720317 0 0
0.3818181818176247 0 0
0.4363636363632168 0 0
0.4909090909088285 0 0
0.5454545454544089 0 0
0.6 0.03999999999991203 0
0.6 0.07999999999979179 0
0.6 0.1199999999997886 0
0.6 0.1599999999998948 0
0.6510638297871261 0.2 0
0.7021276595742618 0.2 0
0.7531914893613819 0.2 0
0.8042553191485237 0.2 0
0.8553191489356438 0.2 0
0.9063829787228289 0.2 0
0.957446808509926 0.2 0
1.008510638297009 0.2 0
1.059574468084092 0.2 0
1.110638297871174 0.2 0
1.161702127658257 0.2 0
1.21276595744534 0.2 0
1.263829787232422 0.2 0
1.314893617019505 0.2 0
1.365957446806588 0.2 0
1.417021276593671 0.2 0
1.468085106380754 0.2 0
1.519148936167923 0.2 0
1.570212765955006 0.2 0
1.621276595742088 0.2 0
1.672340425529171 0.2 0
1.723404255316254 0.2 0
1.774468085103337 0.2 0
1.825531914890624 0.2 0
1.876595744677951 0.2 0
1.927659574465349 0.2 0
1.978723404252714 0.2 0
2.029787234040074 0.2 0
2.080851063827477 0.2 0
2.131914893614798 0.2 0
2.182978723402204 0.2 0
2.234042553189523 0.2 0
2.285106382976928 0.2 0
2.336170212764247 0.2 0
2.387234042551653 0.2 0
2.438297872338975 0.2 0
2.489361702126377 0.2 0
2.540425531913739 0.2 0
2.591489361701102 0.2 0
2.642553191488421 0.2 0
2.693617021275827 0.2 0
2.744680851063146 0.2 0
2.795744680850551 0.2 0
2.84680851063787 0.2 0
2.897872340425276 0.2 0
2.948936170212618 0.2 0
3 0.2533333333332341 0
3 0.3066666666664725 0
3 0.3599999999996274 0
3 0.413333333332804 0
3 0.4666666666659806 0
3 0.5199999999991571 0
3 0.5733333333323336 0
3 0.6266666666656895 0
3 0.6799999999991551 0
3 0.7333333333326146 0
3 0.7866666666660802 0
3 0.8399999999995775 0
3 0.8933333333330373 0
3 0.9466666666664969 0
2.949152542373491 1 0
2.898305084746983 1 0
2.847457627120474 1 0
2.796610169493702 1 0
2.745762711866469 1 0
2.694915254239208 1 0
2.644067796611963 1 0
2.593220338985156 1 0
2.542372881358647 1 0
2.491525423732018 1 0
2.44067796610481 1 0
2.389830508477549 1 0
2.338983050850287 1 0
2.288135593223026 1 0
2.237288135595765 1 0
2.186440677968504 1 0
2.135593220341243 1 0
2.084745762713982 1 0
2.033898305086721 1 0
1.983050847459614 1 0
1.932203389832729 1 0
1.881355932205844 1 0
1.830508474578958 1 0
1.779661016952073 1 0
1.728813559325189 1 0
1.677966101698303 1 0
1.627118644071418 1 0
1.576271186444533 1 0
1.525423728817648 1 0
1.474576271190575 1 0
1.423728813563314 1 0
1.372881355936053 1 0
1.322033898308791 1 0
1.27118644068153 1 0
1.220338983054269 1 0
1.169491525427008 1 0
1.118644067799747 1 0
1.067796610172485 1 0
1.016949152545224 1 0
0.9661016949179628 1 0
0.9152542372907018 1 0
0.8644067796634407 1 0
0.8135593220361792 1 0
0.7627118644089181 1 0
0.7118644067816566 1 0
0.661016949154396 1 0
0.6101694915271345 1 0
0.5593220338998739 1 0
0.5084745762726124 1 0
0.4576271186453518 1 0
0.4067796610180903 1 0
0.3559322033908292 1 0
0.3050847457635677 1 0
0.2542372881363066 1 0
0.2033898305090456 1 0
0.1525423728817841 1 0
0.101694915254523 1 0
0.05084745762726151 1 0
0 0.9473684210524125 0
0 0.8947368421048248 0
0 0.8421052631576025 0
0 0.7894736842105994 0
0 0.7368421052635962 0
0 0.6842105263165927 0
0 0.6315789473695894 0
0 0.5789473684225861 0
0 0.5263157894755828 0
0 0.4736842105282874 0
0 0.4210526315806998 0
0 0.3684210526331123 0
0 0.3157894736855248 0
0 0.2631578947379374 0
0 0.21052631579035 0
0 0.1578947368427625 0
0 0.1052631578951749 0
0 0.05263157894758741 0
0.4374856279758046 0.955462795473483 0
0.625531914893563 0.2394317949808221 0
0.7891616249544176 0.9557759867023439 0
2.570562443351098 0.9559758769411787 0
2.364406779663917 0.9559648099769389 0
2.161016949154874 0.9559648099769389 0
1.957627118646171 0.9559648099772646 0
1.756856606547665 0.9560078743553572 0
1.553415402058453 0.9561420672712786 0
1.347457627122422 0.95627738856474 0
1.144067796613377 0.9563034567995272 0
0.04146670856173688 0.5498854761242812 0
0.9828861012149002 0.2442383967812095 0
2.465390809289578 0.2421522008426663 0
2.259572257543314 0.243586373321511 0
2.055319178697841 0.24363095694403 0
1.851066099915384 0.2436741865527954 0
1.646810778591931 0.2437170671454607 0
1.442550972205278 0.2437587738062726 0
1.238275543433999 0.2442249255777628 0
0.5808319854219957 0.2417757800606361 0
0.6039807146029165 0.2785115072887754 0
2.951522810440164 0.5995349944823752 0
0.5591131416216563 0.2791940688436214 0
0.5817690965011905 0.3180386921514113 0
0.5363223429032008 0.3181181454258206 0
0.5590799034518541 0.3577335228902347 0
2.671507320584846 0.2416532643303031 0
0.5129751095268966 0.3576683284772433 0
0.5360042291720796 0.3976917483469583 0
0.5824744072527975 0.3977458985417416 0
0.5593202208963615 0.4382323507424581 0
0.6062221806132498 0.4382172989803606 0
0.5831398502988122 0.4790536480492864 0
0.630245509211025 0.4792447281197085 0
0.5373735766893435 0.4817209888486334 0
0.2780994584865757 0.9660670791366374 0
0.9407829849899363 0.9559852449915113 0
0.6069171020766708 0.5203953730037822 0
0.6544691944766102 0.5205851219036783 0
2.724115018794794 0.9563165682871465 0
0.04341732373162228 0.2894490564426765 0
0.6304562046384772 0.5622881188475496 0
0.6786259291441818 0.5621981517123112 0
0.03938236249337418 0.7091098825652095 0
0.2999999999993055 0.04723774929726795 0
0.7024556039582556 0.5200372393771872 0
0.726826368578132 0.562505099575485 0
0.6545296629344706 0.6041261864689124 0
0.6061411599039735 0.6041581669226386 0
2.954333097254252 0.4393531299125908 0
0.7512905139641642 0.5199435586712576 0
0.7757938242112172 0.5624873891767795 0
0.4902278874550028 0.3174350849704655 0
0.4661669324669476 0.3576870257641042 0
0.8003371868304782 0.5195844107098163 0
0.8251782158071723 0.5621174250913318 0
0.6300572939290072 0.6460588488486728 0
0.581677101888915 0.6462390077748084 0
0.7994632498085218 0.6067218912904607 0
0.850068894442807 0.6047738158182728 0
0.8747482025846163 0.5617915498272615 0
0.8998102571129438 0.6045430073239006 0
0.924588798996443 0.5614360364847856 0
0.9497125983499418 0.6046345614192383 0
0.9744389394813738 0.5613114208485291 0
0.9997656958801404 0.604758732930365 0
1.024028015453996 0.5597386087889248 0
1.050046148741532 0.6042836632406788 0
1.075213347289947 0.5607219500906248 0
1.100604808237692 0.6043040651294929 0
1.125727120818654 0.5598592244124957 0
1.151165990249003 0.6040638744783449 0
1.176319565514503 0.5595216793632644 0
1.201793840633129 0.6038781229769293 0
1.226960854257978 0.5600604284234054 0
1.252470704079807 0.6038664424080111 0
1.277198987313166 0.55874807111347 0
1.303148970446812 0.6035341865995129 0
1.328130525802366 0.5586520846649797 0
1.353966012915828 0.6034054551655909 0
1.379205474149696 0.558835304845746 0
1.404820923589671 0.6032503772964327 0
1.430092956912838 0.5587079795953892 0
1.455686300628245 0.6030926920218221 0
1.480963489515269 0.5580480170404921 0
1.506562983627252 0.6028436706904448 0
1.531847734917255 0.5577680566445021 0
1.557453558526421 0.6026435181305781 0
1.582745756648754 0.5575726351194972 0
1.608358176126191 0.6024617369905624 0
1.633656322435163 0.5573842056888257 0
1.659277805706528 0.6022873884346892 0
1.684577462424181 0.5572075399874397 0
1.710203504633815 0.6021111834258887 0
1.735506494091908 0.5570246051384745 0
1.761134606493805 0.6019307913070558 0
1.786441498808711 0.5568475628142857 0
1.812072359676459 0.6017522495250318 0
1.837381834584306 0.5566653603575672 0
1.863017119880456 0.601574020443024 0
1.888326681794851 0.5564884669211013 0
1.913963858781491 0.601395113412113 0
1.939274704592935 0.5563067813822595 0
1.964908406083961 0.6012129143420911 0
1.990224566339525 0.5561292537946573 0
2.015859329864652 0.601032757987411 0
2.041177190815608 0.5559477304122714 0
2.066818109147928 0.600855564813206 0
2.09213259478423 0.5557710179709322 0
2.117774443326183 0.6006760179252703 0
2.143088896138059 0.5555900146741853 0
2.168729305797513 0.6004921726308964 0
2.194045774061603 0.5554125217101814 0
2.219686577151481 0.6003111949874665 0
2.245003702950199 0.5552312296013228 0
2.270641766736839 0.6001298880828497 0
2.295962173634055 0.5550546947866846 0
2.321601310982481 0.599950595338254 0
2.346923922781879 0.5548708301001631 0
2.372568004594504 0.5997713467128002 0
2.397895756972162 0.5547000681173012 0
2.423546697517365 0.5996004731097838 0
2.448884659670238 0.5545095609010697 0
2.474538141419978 0.5994220729206983 0
2.499902931415869 0.5543494429014709 0
2.525546234724433 0.5993228147833797 0
2.550973655834774 0.5541346321759457 0
2.576685338327378 0.5992395038842441 0
2.602182482443039 0.5540180644105763 0
2.958944511946492 0.7598964409357507 0
2.628014314012249 0.5990918128353608 0
0.4429170888396284 0.3159793431387367 0
0.4184631156771032 0.357715436029677 0
0.3946070818022522 0.3157219358498637 0
0.3697276561976696 0.3576135465858128 0
2.449044355814981 0.643990885448769 0
2.24531935830005 0.6444881680698032 0
1.024857369602972 0.6487487015028032 0
2.041498164113345 0.6452136474256573 0
1.837701628146142 0.6459229900926835 0
0.3455853078837237 0.3150377509381005 0
0.3204780172155196 0.3574251905568473 0
0.3449438693484468 0.4002519798591844 0
1.633970683060678 0.6466170330762969 0
1.227333380683899 0.6479317947648683 0
1.430444030483603 0.6473399689389928 0
0.875196942148915 0.6483605753517908 0
0.6057010339261732 0.6883083412871458 0
0.5571396249147901 0.6885103796531055 0
2.653543252321963 0.5527758280498023 0
1.099471497978971 0.5148848291986879 0
2.602427017093663 0.6438096025956825 0
2.653851606946175 0.6437140715169269 0
1.353138019780104 0.5138574114565649 0
1.556762689169365 0.5115839513085039 0
1.760509743411542 0.5109012431757174 0
1.964341412665395 0.510388685431229 0
0.2953909602266698 0.4001745965167012 0
[...]
    <PointData>
      <DataArray type="Float64" NumberOfComponents="3" Name="Velocity" format="ascii">
2.999999951816921 0 0
0 0 0
0 0 0
3.21554399566205 0 0
3.216587566066492 0 0
3.000000000000508 0 0
2.999999980138397 0 0
3.000000446890414 0 0
2.999997249828686 0 0
3.000007894654618 0 0
3.000026038396353 0 0
2.999493016538787 0 0
3.001457900923415 0 0
3.0232563112728 0 0
2.828473190146728 0 0
1.551407336388955 0 0
0 0.01611605788059985 0
0 0.01164103921096652 0
0 0.08701343356312799 0
0 0.2326473045436664 0
1.772020981602915 0 0
2.507409168368642 0 0
2.83292486040606 0 0
2.958906800463762 0 0
2.994009227389464 0 0
3.000804745074236 0 0
3.000446900832357 0 0
3.000006877497988 0 0
2.999961910086162 0 0
3.000004311120386 0 0
3.000002017712827 0 0
2.999999226392617 0 0
3.000000071761568 0 0
3.000000039508866 0 0
2.999999980597551 0 0
3.000000006427478 0 0
2.999999998060144 0 0
3.000000000529675 0 0
2.999999999869035 0 0
3.00000000002969 0 0
2.999999999993725 0 0
3.000000000001235 0 0
2.999999999999772 0 0
3.000000000000044 0 0
3 0 0
2.999999999999919 0 0
3.000000000000295 0 0
2.999999999999245 0 0
3.000000000001466 0 0
2.999999999999331 0 0
2.999999999990672 0 0
3.000000000033257 0 0
3.000000000003056 0 0
2.999999999665227 0 0
3.000000000919099 0 0
2.999999998669224 0 0
3.000000006484851 0 0
2.99999995454197 0 0
3.000000193873416 0 0
2.999999758590205 0 0
2.999997328910541 0 0
3.000019031163397 0 0
2.999993455160516 0 0
2.999540514753581 0 0
3.001396475789146 0 0
3.038238393974836 0 0
3.2168488619766 0.0008519285794840022 0
3.2064202239647 9.515098918641875e-05 0
3.207501591276658 0.0002570354987933316 0
3.20732054949892 -0.0001201139862222548 0
3.209660361612693 -0.0002605712932685928 0
3.211893868188408 -0.0001900306491667475 0
3.209793180148143 8.383390763307601e-05 0
3.209061805138294 -0.0003466085125570402 0
3.212722050336121 1.249825591557165e-05 0
3.210624651608047 0.0001662462334118491 0
3.211915490766829 0.0001224924537347522 0
3.20855629703264 -3.307325199140778e-05 0
3.206842624355602 -0.001032251338765712 0
3.218360597035821 -0.0007631202091042016 0
3.034042107099218 0 0
3.001743346562014 0 0
2.999617820592632 0 0
2.999993018827863 0 0
3.00001333263221 0 0
2.999998011156656 0 0
2.999999821259603 0 0
3.000000129940807 0 0
2.999999975494384 0 0
3.000000003039497 0 0
2.999999999063651 0 0
3.00000000069885 0 0
2.999999999816796 0 0
2.999999999974707 0 0
3.000000000020003 0 0
3.000000000001169 0 0
2.999999999996132 0 0
3.000000000001442 0 0
2.9999999999999 0 0
2.999999999999813 0 0
3.000000000000137 0 0
2.999999999999939 0 0
3.000000000000019 0 0
2.999999999999996 0 0
3 0 0
3 0 0
3.000000000000001 0 0
2.999999999999991 0 0
3.000000000000011 0 0
3.000000000000033 0 0
2.999999999999916 0 0
2.999999999999929 0 0
3.000000000000423 0 0
2.999999999999899 0 0
2.9999999999988 0 0
3.000000000001252 0 0
3.000000000003403 0 0
2.999999999995036 0 0
2.999999999990445 0 0
3.000000000008759 0 0
3.000000000027913 0 0
3.000000000015755 0 0
2.999999999987635 0 0
2.999999999968786 0 0
2.999999999965067 0 0
2.999999999974307 0 0
2.999999999986628 0 0
2.999999999994919 0 0
2.999999999997387 0 0
2.999999999997869 0 0
3.000000000004723 0 0
2.999999999998883 0 0
3.000000000002147 0 0
3.00000000000007 0 0
2.999999999999796 0 0
3.000000000000394 0 0
2.999999999999906 0 0
2.99999999999988 0 0
3.000000000001197 0 0
2.999999999997174 0 0
2.999999999998379 0 0
3.00000000002226 0 0
2.999999999970089 0 0
3.000000000053209 0 0
2.99999999999389 0 0
2.999999999981564 0 0
3.000000000215116 0 0
3.000000000448607 0 0
2.999999996889549 0 0
2.999999995628009 0 0
3.000000002883575 0 0
3.000000008569483 0 0
3.000000023189886 0 0
3.000000031223655 0 0
3.000000006375131 0 0
2.999999978057466 0 0
2.999999999997279 -1.498093914037467e-11 0
1.84204128603569 0.3372354358106642 0
3.000000000041063 6.912568825716364e-11 0
3.000000023241645 -2.372710166452258e-09 0
2.999999999989741 -6.642644079367631e-13 0
3.000000000004696 6.189765743114676e-13 0
2.999999999999865 -5.372526415348683e-14 0
3.000000000000005 -8.173354135883976e-15 0
3.000000000000017 -3.043074941480174e-16 0
2.999999999999919 6.935272797039615e-14 0
2.999999999994771 1.099675356587768e-13 0
2.999999999836597 9.170759417476757e-11 0
3.000132055707604 -3.680500357798553e-05 0
3.000000006473067 -2.599131948930603e-10 0
2.999999999947952 1.294765855908689e-12 0
3.000000000000562 7.285386746595598e-14 0
2.999999999999941 3.426457976283965e-14 0
2.999999999994791 1.689632393305276e-13 0
3.000000001210503 9.902308142898434e-12 0
2.999999698173653 2.353938648877925e-08 0
2.02899909458865 0.3494218618495651 0
2.539933588502016 0.2780928334921229 0
3.048595632468934 -0.0001021237783111977 0
2.72882563689708 0.1504912568149543 0
2.886946367435313 0.09460176766130661 0
2.960334267983324 0.02857010227488792 0
2.985836038117781 0.01486617567161468 0
2.999998080090956 5.64417709769475e-08 0
2.998452785039163 0.00195422238661419 0
2.99979231235545 0.0007093505330100116 0
2.997402446093232 0.004322740658742005 0
3.00023915160956 -0.0001030104743881613 0
3.00007466910965 0.0002899205621233559 0
3.000121205779922 -0.0001878049613221133 0
3.000158942286566 -0.0003124207700707659 0
3.000029613806366 -6.263323341715063e-05 0
2.999999999998083 -9.942120457174175e-14 0
2.999999999962682 -1.040670451849814e-11 0
3.00000984201145 -3.853786007963817e-05 0
3.000025165611907 -9.731305735600644e-05 0
3.000005194072571 -4.231115233980652e-07 0
3.000000001446148 -1.332178638571461e-10 0
2.999995438715719 1.257690489084122e-05 0
2.999999533931323 6.767369415167837e-06 0
3.000000000020236 -3.88734887892076e-12 0
2.999931692826482 6.058465727581007e-06 0
3.000009162359237 -0.0001095483209899889 0
3.000001029259378 8.415129638027267e-06 0
2.999999120096643 5.220156053238226e-06 0
2.999999467869124 2.360923298331327e-06 0
3.058408129829477 -0.0001979079401612601 0
2.999990399041083 -7.003441047319543e-05 0
3.000002184731528 9.692636599217271e-06 0
2.997316870216536 0.002362341142767771 0
3.000711079411095 -0.0003205457877014792 0
2.999986992306138 -2.066584724833105e-05 0
3.000003332688288 8.036662913819733e-06 0
3.000000099776454 -8.200330994442036e-07 0
3.000000243148827 -7.465839281654313e-07 0
3.000000830000107 1.157783869598254e-06 0
3.000000149641437 -4.926887096131692e-07 0
3.000003245489917 3.191741670274924e-06 0
2.999999466511224 -7.941336009872952e-07 0
3.000001175626501 -6.170502681006917e-07 0
2.999999474852703 -2.727944322028327e-07 0
2.999999343523478 -9.981337420805169e-07 0
2.999999908619165 1.271069037929526e-07 0
2.999999386288184 -9.787859425249337e-08 0
3.000000140065671 1.019218877318097e-07 0
2.999999985261722 2.803227264761722e-07 0
3.000000058985359 -3.817799063398688e-08 0
3.000000129652617 4.122515548515002e-09 0
2.999999973471688 -2.539293550070735e-08 0
3.000000026114609 -5.526276128506209e-08 0
2.999999987639368 1.387826603309012e-08 0
2.999999977690058 7.757696413318892e-09 0
3.000000004723578 1.070550737570109e-09 0
2.99999999551173 6.329370983744097e-09 0
3.000000001631051 -2.358769771796098e-09 0
3.000000005356875 -3.002711499154956e-09 0
2.999999998677582 7.871060687107436e-10 0
2.999999998372634 6.129026124157806e-10 0
3.000000000324409 -9.355503389823735e-11 0
3.000000000221114 -4.012792748427584e-11 0
3.000000000000763 -2.525635804786045e-11 0
3.000000000025374 -1.665485612348537e-11 0
2.999999999966808 1.832499131289243e-11 0
2.999999999971109 8.664910692433647e-12 0
3.000000000016988 -6.742808024288048e-12 0
3.00000000001264 -2.848476155364525e-12 0
2.999999999993905 2.027159367819546e-12 0
2.999999999995581 8.173536025265144e-13 0
3.000000000001906 -5.651939404888803e-13 0
3.000000000001351 -2.110408463483225e-13 0
2.999999999999442 1.518686197540586e-13 0
2.999999999999619 4.934013515482774e-14 0
3.000000000000163 -3.84728181177399e-14 0
3.000000000000099 -1.016178585380598e-14 0
2.999999999999956 9.008009035280046e-15 0
2.999999999999978 3.506916095730034e-15 0
2.99999999999999 -5.526422833535581e-15 0
3.000000000000011 -1.060843532932703e-14 0
3.000000000000072 2.35107496962713e-14 0
2.999999999999922 3.324601823010789e-14 0
2.999999999999857 -7.278147302727032e-14 0
3.000000000000274 -6.961370477114897e-14 0
3.000000000000073 1.40491547573631e-13 0
2.999999999999351 1.076451713115939e-13 0
3.000000000000683 -1.546683359329637e-13 0
3.000000000000921 -1.395747242268767e-13 0
2.999999999996597 7.86793916023543e-15 0
3.000000000001159 2.250097209118447e-13 0
3.000000000007971 2.643365352137797e-13 0
2.999999999988555 -4.830738533668885e-13 0
2.999999999997838 -2.180233622926398e-13 0
3.000000000024378 7.462342702836264e-13 0
2.999999999958591 -6.543263021142008e-13 0
3.000000000030698 -1.541545060587223e-15 0
3.000000000054022 1.792991172525436e-12 0
2.999999999770408 -2.845355554006876e-12 0
3.000000000369447 -3.298097539740708e-12 0
3.000000000022173 9.039100347971812e-12 0
2.999999998473306 1.26673081935211e-11 0
3.000000002043078 -4.370763388261329e-11 0
3.000000003941573 -4.464934273568299e-11 0
2.999999993036219 1.31533000823415e-10 0
2.99999998374524 1.331430725864636e-10 0
3.000000005256444 1.003347661313581e-09 0
3.000000078411999 -2.230245794960458e-10 0
3.000000105302426 -7.764897446469368e-09 0
3.067881268309314 0.0001299716401372279 0
2.999999810610448 -1.141259681424612e-09 0
3.001042798456951 -0.0003245391688422626 0
3.000099854405901 -7.953024822053301e-05 0
3.000105550549164 -5.955997085030447e-05 0
2.999959409418914 1.069533104360044e-05 0
3.000000001930238 1.926240569102036e-11 0
3.000000000026199 1.078517747534246e-12 0
3.000000067897192 7.079592543917453e-09 0
2.999999999998923 -2.840456471387147e-13 0
3.000000000000032 3.060664665651388e-15 0
2.999954988509514 1.159267118645044e-05 0
2.999998631893554 1.977188008854475e-06 0
2.999998483222375 2.714464913624458e-06 0
3.00000000000191 -7.999286262540887e-13 0
3.000000003302266 -2.884402706751203e-09 0
2.999999999931009 1.341243790132101e-11 0
2.999999743263559 -2.10025535700969e-07 0
3.000000031718423 -1.034546956911099e-07 0
2.99999997420597 5.300271298784496e-08 0
2.999999117076503 4.264045682395179e-09 0
2.999999571841644 3.781768131857472e-07 0
3.000000119800136 6.654708815658204e-09 0
2.999999075867652 -3.871722721799268e-09 0
3.000000006695247 -2.715389677909899e-09 0
2.999999999995965 -2.896643159201884e-12 0
2.999999999999973 -2.010305417159901e-14 0
2.999999999999968 7.486398182402031e-14 0
3.000002370478113 -8.505067834020552e-07 0
3.000001622374203 -8.405519970715773e-07 0
3.00000000000539 -5.008142869678571e-14 0
3.000000000407884 -4.837303741450565e-12 0
3.000000075768428 -1.351068581294176e-09 0
2.999992546674781 -0.0001682962676954065 0
3.000004765884847 2.787855022854595e-06 0
2.999999915522754 1.449645713930226e-08 0
2.999998714608818 -6.614900150222138e-08 0
2.999999986958831 5.36167319444708e-08 0
2.999999991907607 7.343265962205883e-08 0
2.999999996307921 1.556960764547903e-08 0
2.999999958717799 7.220458509953114e-08 0
3.000000006657912 -7.609661174518395e-09 0
2.999999989043168 3.111962268666425e-08 0
3.000000004971676 -8.112870719441748e-09 0
3.000000013349342 -7.166028540878682e-09 0
2.99999999754346 6.989181737494198e-10 0
3.000000004416125 -7.576204787543752e-09 0
2.999999998956546 1.844509140548308e-09 0
2.999999996352398 1.602899701538176e-09 0
0.9860694231899921 0.1092875159440726 0
3.00122231313795 -0.0003394132536011806 0
3.000000000924355 -6.224061398293985e-10 0
3.000005201035609 -1.05594069771261e-06 0
2.999780430486102 -1.73065861621902e-05 0
2.999999696579341 1.049490276589152e-08 0
2.988977346482827 0.007269796051249658 0
3.000000000401741 6.391149093363534e-10 0
2.999999077680401 1.300160948612298e-08 0
3.000000149899916 -1.766066918093347e-09 0
3.00000150579628 -3.528654319570966e-08 0
3.000010262791216 -2.197220561433892e-07 0
2.750545079127327 0.08512685877973243 0
3.000000002680666 -1.026251000466995e-08 0
2.999996469133627 -2.913808253390093e-08 0
3.000000002031595 -4.553554852715231e-10 0
2.999999994003923 2.955576500831609e-09 0
2.999980446620892 4.483684188356404e-06 0
3.000007541290878 -1.969667118323673e-06 0
2.999999999999175 1.210275493248653e-12 0
3.000000000056365 7.525941571901915e-11 0
2.999999999999131 -7.364829350128632e-13 0
2.999999999999969 8.52601918077457e-15 0
3.000000000000124 -5.496109562573625e-14 0
3.000000000013691 -7.897510789820333e-12 0
3.000000000007112 -5.819180099474144e-13 0
2.999999999999955 9.737175918038327e-14 0
3.000000000130636 4.771666205344996e-12 0
3.00000000002276 1.739403032281438e-12 0
2.99999999999942 1.492386054685459e-14 0
2.999991799813819 1.200850253381433e-06 0
2.999999976287886 1.77791345017632e-09 0
2.999999999736038 6.119156843560453e-10 0
2.99999999999893 2.067994010554492e-13 0
2.99999999999996 -1.015107711627747e-14 0
3.000000004210124 1.623579958069031e-10 0
3.00000000001728 9.791636358227329e-13 0
3.000000000001149 -1.775787536310224e-13 0
2.999999999986181 -1.5923523391259e-12 0
2.999999999999999 -5.137223446248282e-16 0
3.000000000000017 -3.843991121819787e-14 0
2.999999999999798 -8.083130789319851e-13 0
2.999999976740262 2.625821426165976e-09 0
3.000000000000786 1.124645344679345e-13 0
2.999999999999988 1.253762535289657e-14 0
2.999999999999123 -1.937642688346782e-13 0
3.000000000247905 -9.020111028141155e-11 0
2.999999999784566 4.795346044506832e-12 0
2.99999999995623 -5.965215272642275e-13 0
3.000000084539094 -6.17299763976785e-08 0
3.000000041127842 4.051627324277969e-09 0
2.999999997228091 2.124788736279186e-08 0
2.999812650033197 5.274055226461489e-06 0
3.011069692721839 -0.0001427990897347288 0
3.00000000377045 -5.732942057595929e-11 0
2.999999585805667 4.610127013355234e-08 0
3.000000000830443 -4.185579400771996e-10 0
2.993818271573009 0.0112058394067874 0
2.999999980564877 2.765998743100256e-08 0
2.999999999658428 6.008405711641658e-11 0
2.999999999734341 -2.841803623057928e-09 0
2.999999997386676 2.107333397528547e-09 0
3.000013465700843 -5.753274876066547e-08 0
2.999999938029424 -9.842741497457352e-09 0
3.000000066368144 -1.533134111210519e-09 0
2.9999999988639 6.279454715104106e-10 0
3.000000000003067 1.029540901575923e-10 0
2.999999954726623 -3.598510848375869e-08 0
2.999988109601934 1.657016474812472e-06 0
2.999999999890981 1.733609526084329e-10 0
3.000000658067528 1.37294830780864e-06 0
3.000010459846829 -1.407910568870642e-06 0
3.000005168586087 -1.244247529332111e-06 0
2.999998483369184 2.965930189240436e-07 0
3.000009537692348 7.72142088757033e-08 0
2.999990851404288 -9.977224012829861e-07 0
3.05936946008377 0.0005457462942811693 0
3.045434197384629 -0.0006335015865676218 0
3.000000784060043 -5.597811893469733e-07 0
3.000000000083672 -6.585609015281891e-11 0
2.999966713289725 -0.0001207147413788833 0
3.000199795508296 0.0001434384061200855 0
3.000042410951255 -0.000247982048583678 0
3.000011287624675 4.129467435070423e-07 0
2.999999903313741 -5.164083165583319e-07 0
2.593915783268816 0.1396090802173353 0
3.000001152167937 1.353745420984524e-07 0
3.000000017289926 6.424974355142965e-09 0
3.000000014243719 -4.026115560099882e-09 0
3.000000013511984 -4.568302732871898e-09 0
2.999997977202499 3.254202324511546e-07 0
2.999999999976605 -1.677454764718194e-11 0
3.000781826414441 0.0007736865867633646 0
3.000326686473179 -0.0003387117613621177 0
2.999868829870729 0.005694237106611579 0
2.999851350350791 7.124978185892541e-06 0
2.999975082856742 -4.073006527771097e-07 0
2.999999999998208 1.455421438631148e-11 0
3.000000000057935 5.644811162648951e-11 0
3.00000010905437 -6.500745100525707e-09 0
2.999999998256922 3.547595862322431e-10 0
2.99999998483132 6.525566731016219e-10 0
2.999999995413694 2.328884989105755e-10 0
3.000000003361595 -1.425830561637726e-10 0
3.000000001381562 -8.391434529715365e-11 0
2.999999998621178 1.809436740637716e-11 0
3.000000000150896 3.483418655563103e-11 0
3.000000000356183 -7.382279071061603e-12 0
2.999999999816314 -8.638618039362395e-12 0
3.000000000030307 7.998693332062774e-12 0
3.00000000000593 -5.304755594976489e-12 0
2.999999999977261 -1.963129536188933e-12 0
3.000000000019265 4.226573868050314e-12 0
2.999999999990658 -4.345443080076304e-13 0
2.999999999997969 -1.166277913564161e-12 0
3.000000000009206 1.096692028870914e-13 0
2.999999999995884 1.434328640101387e-13 0
2.999999999997271 3.172689616782696e-13 0
3.000000000002699 -1.026088701019597e-13 0
2.999999999999857 -3.163487081645174e-13 0
2.999999999999138 1.637531619479825e-13 0
3.000000000000536 1.460675254372768e-13 0
3.000000000000099 -1.468365666209612e-13 0
2.999999999999703 -1.177336663415973e-14 0
3.000000000000054 8.899109897564349e-14 0
3.000000000000099 -3.761275996742719e-14 0
2.999999999999967 -3.872045287164238e-14 0
2.999999999999981 3.709498373345096e-14 0
3.000000000000003 1.118542732645253e-14 0
3.000000000000003 -2.224475080065682e-14 0
3.000000000000003 -2.003771016999714e-15 0
3.000000000000001 8.241045765838774e-15 0
3.000000000000002 -4.28730233366457e-15 0
2.999999999999981 9.52104482691902e-15 0
2.999999999999976 1.539172874505403e-14 0
3.000000000000107 -5.964091051826221e-14 0
3.000000000000036 -3.826648743577305e-14 0
2.999999999999797 1.65600571553671e-13 0
3.000000000000081 2.739373392720268e-14 0
2.999999999999882 -1.95260220665899e-13 0
2.999999999999641 1.413005352915261e-13 0
3.000000000001438 -4.613928852631784e-13 0
2.99999999999994 -4.935631592898132e-13 0
2.999999999998606 2.518041444109674e-12 0
3.000000000002928 2.848519127643601e-13 0
2.999999999990873 -3.592140684768283e-12 0
2.999999999995313 2.001667230139364e-12 0
3.000000000026409 -6.0017531066244e-12 0
2.99999999998832 -4.213176193023218e-12 0
3.000000000022238 2.688732752791946e-11 0
3.000000000043677 -3.473024965545946e-12 0
2.999999999803542 -7.233904905792675e-12 0
2.999999999996679 1.925529952368664e-11 0
3.000000000159912 -9.279557685349616e-11 0
2.999999999854508 -1.577862167477047e-11 0
3.000000000470271 1.410613233963299e-10 0
3.000000000188929 -2.87017321220628e-11 0
2.999999998852574 -1.158709371087027e-11 0
3.000000000309605 1.606407414166565e-10 0
2.999999999478717 -7.689786506274563e-10 0
2.9999999992388 -9.181701126989625e-11 0
3.000000003772277 1.152448255346295e-09 0
2.99999999921688 -5.969468355736982e-10 0
3.000000001959135 2.719804711505459e-09 0
3.000000001576135 6.183903986577396e-10 0
2.999999994368117 -3.35342202616078e-09 0
3.000000002995031 2.346924799438032e-09 0
2.999999989130198 -1.158746142809019e-08 0
3.00000000200738 8.496717167905166e-10 0
2.999999988456154 -1.197868639584802e-08 0
3.000000000211251 -2.734017748125275e-09 0
3.000011181696393 -4.221955553391099e-07 0
2.999869583250082 -3.904283766785597e-06 0
3.0000000088652 -7.295401417548204e-09 0
2.999999996199898 1.330546505897758e-09 0
3.000023268625801 -3.176872150912969e-06 0
2.99988192664381 1.622499751493425e-05 0
2.999746738846677 7.882745552194434e-06 0
2.999999993085653 -3.706027456135761e-09 0
2.999999999497208 -5.389463883959858e-09 0
3.000000040383764 7.75614889885525e-08 0
3.000000072439728 2.9202368297e-08 0
2.999665140100278 3.481647058367697e-06 0
2.999853857239162 -5.554926313148959e-06 0
2.999858099610505 7.697093736866259e-06 0
2.999731547834332 -1.33295135209183e-06 0
2.999991217823968 -1.328096916796358e-06 0
2.999880556719095 4.73476345430604e-06 0
3.00001747779335 -8.991248793234093e-08 0
2.999984234409166 4.148390977546685e-06 0
3.000011828476045 -5.207920509640925e-07 0
3.000016749690519 4.309532924148164e-07 0
3.000002408421793 -6.452293190400093e-08 0
2.999773575916373 -1.076297244526231e-06 0
2.999998826156654 -1.083775842829308e-07 0
2.999999154110915 3.914449008954425e-09 0
3.000000337175204 -3.444820195642278e-07 0
3.000001105959368 -3.481066641536155e-07 0
2.999999998556292 -8.756764685950183e-10 0
2.999999999518031 -1.634849482074098e-10 0
3.000000151121016 -1.445472210491204e-08 0
3.000000000000282 6.026013541795778e-14 0
2.178892310405383 -0.00572224757557139 0
2.999999871482417 1.534870371514016e-08 0
3.000000109815773 3.314840701936276e-10 0
3.00000008013765 9.34506994148665e-10 0