<?xml version="1.0"?>
<VTKFile type="UnstructuredGrid">
  <UnstructuredGrid>
  <Piece NumberOfPoints="1224"  NumberOfCells="2290">
    <Points>
      <DataArray type="Float64" NumberOfComponents="3" format="ascii">
0 0 0
0.6 0 0
0.6 0.2 0
3 0.2 0
3 1 0
0 1 0
0.05454545454535233 0 0
0.1090909090906768 0 0
0.1636363636359771 0 0
0.2181818181812728 0 0
0.2727272727265793 0 0
0.3272727272720317 0 0
0.3818181818176247 0 0
0.4363636363632168 0 0
0.4909090909088285 0 0
0.5454545454544089 0 0
0.6 0.03999999999991203 0
0.6 0.07999999999979179 0
0.6 0.1199999999997886 0
0.6 0.1599999999998948 0
0.6510638297871261 0.2 0
0.7021276595742618 0.2 0
0.7531914893613819 0.2 0
0.8042553191485237 0.2 0
0.8553191489356438 0.2 0
0.9063829787228289 0.2 0
0.957446808509926 0.2 0
1.008510638297009 0.2 0
1.059574468084092 0.2 0
1.110638297871174 0.2 0
1.161702127658257 0.2 0
1.21276595744534 0.2 0
1.263829787232422 0.2 0
1.314893617019505 0.2 0
1.365957446806588 0.2 0
1.417021276593671 0.2 0
1.468085106380754 0.2 0
1.519148936167923 0.2 0
1.570212765955006 0.2 0
1.621276595742088 0.2 0
1.672340425529171 0.2 0
1.723404255316254 0.2 0
1.774468085103337 0.2 0
1.825531914890624 0.2 0
1.876595744677951 0.2 0
1.927659574465349 0.2 0
1.978723404252714 0.2 0
2.029787234040074 0.2 0
2.080851063827477 0.2 0
2.131914893614798 0.2 0
2.182978723402204 0.2 0
2.234042553189523 0.2 0
2.285106382976928 0.2 0
2.336170212764247 0.2 0
2.387234042551653 0.2 0
2.438297872338975 0.2 0
2.489361702126377 0.2 0
2.540425531913739 0.2 0
2.591489361701102 0.2 0
2.642553191488421 0.2 0
2.693617021275827 0.2 0
2.744680851063146 0.2 0
2.795744680850551 0.2 0
2.84680851063787 0.2 0
2.897872340425276 0.2 0
2.948936170212618 0.2 0
3 0.2533333333332341 0
3 0.3066666666664725 0
3 0.3599999999996274 0
3 0.413333333332804 0
3 0.4666666666659806 0
3 0.5199999999991571 0
3 0.5733333333323336 0
3 0.6266666666656895 0
3 0.6799999999991551 0
3 0.7333333333326146 0
3 0.7866666666660802 0
3 0.8399999999995775 0
3 0.8933333333330373 0
3 0.9466666666664969 0
2.949152542373491 1 0
2.898305084746983 1 0
2.847457627120474 1 0
2.796610169493702 1 0
2.745762711866469 1 0
2.694915254239208 1 0
2.644067796611963 1 0
2.593220338985156 1 0
2.542372881358647 1 0
2.491525423732018 1 0
2.44067796610481 1 0
2.389830508477549 1 0
2.338983050850287 1 0
2.288135593223026 1 0
2.237288135595765 1 0
2.186440677968504 1 0
2.135593220341243 1 0
2.084745762713982 1 0
2.033898305086721 1 0
1.983050847459614 1 0
1.932203389832729 1 0
1.881355932205844 1 0
1.830508474578958 1 0
1.779661016952073 1 0
1.728813559325189 1 0
1.677966101698303 1 0
1.627118644071418 1 0
1.576271186444533 1 0
1.525423728817648 1 0
1.474576271190575 1 0
1.423728813563314 1 0
1.372881355936053 1 0
1.322033898308791 1 0
1.27118644068153 1 0
1.220338983054269 1 0
1.169491525427008 1 0
1.118644067799747 1 0
1.067796610172485 1 0
1.016949152545224 1 0
0.9661016949179628 1 0
0.9152542372907018 1 0
0.8644067796634407 1 0
0.8135593220361792 1 0
0.7627118644089181 1 0
0.7118644067816566 1 0
0.661016949154396 1 0
0.6101694915271345 1 0
0.5593220338998739 1 0
0.5084745762726124 1 0
0.4576271186453518 1 0
0.4067796610180903 1 0
0.3559322033908292 1 0
0.3050847457635677 1 0
0.2542372881363066 1 0
0.2033898305090456 1 0
0.1525423728817841 1 0
0.101694915254523 1 0
0.05084745762726151 1 0
0 0.9473684210524125 0
0 0.8947368421048248 0
0 0.8421052631576025 0
0 0.7894736842105994 0
0 0.7368421052635962 0
0 0.6842105263165927 0
0 0.6315789473695894 0
0 0.5789473684225861 0
0 0.5263157894755828 0
0 0.4736842105282874 0
0 0.4210526315806998 0
0 0.3684210526331123 0
0 0.3157894736855248 0
0 0.2631578947379374 0
0 0.21052631579035 0
0 0.1578947368427625 0
0 0.1052631578951749 0
0 0.05263157894758741 0
0.4374856279758046 0.955462795473483 0
0.625531914893563 0.2394317949808221 0
0.7891616249544176 0.9557759867023439 0
2.570562443351098 0.9559758769411787 0
2.364406779663917 0.9559648099769389 0
2.161016949154874 0.9559648099769389 0
1.957627118646171 0.9559648099772646 0
1.756856606547665 0.9560078743553572 0
1.553415402058453 0.9561420672712786 0
1.347457627122422 0.95627738856474 0
1.144067796613377 0.9563034567995272 0
0.04146670856173688 0.5498854761242812 0
0.9828861012149002 0.2442383967812095 0
2.465390809289578 0.2421522008426663 0
2.259572257543314 0.243586373321511 0
2.055319178697841 0.24363095694403 0
1.851066099915384 0.2436741865527954 0
1.646810778591931 0.2437170671454607 0
1.442550972205278 0.2437587738062726 0
1.238275543433999 0.2442249255777628 0
0.5808319854219957 0.2417757800606361 0
0.6039807146029165 0.2785115072887754 0
2.951522810440164 0.5995349944823752 0
0.5591131416216563 0.2791940688436214 0
0.5817690965011905 0.3180386921514113 0
0.5363223429032008 0.3181181454258206 0
0.5590799034518541 0.3577335228902347 0
2.671507320584846 0.2416532643303031 0
0.5129751095268966 0.3576683284772433 0
0.5360042291720796 0.3976917483469583 0
0.5824744072527975 0.3977458985417416 0
0.5593202208963615 0.4382323507424581 0
0.6062221806132498 0.4382172989803606 0
0.5831398502988122 0.4790536480492864 0
0.630245509211025 0.4792447281197085 0
0.5373735766893435 0.4817209888486334 0
0.2780994584865757 0.9660670791366374 0
0.9407829849899363 0.9559852449915113 0
0.6069171020766708 0.5203953730037822 0
0.6544691944766102 0.5205851219036783 0
2.724115018794794 0.9563165682871465 0
0.04341732373162228 0.2894490564426765 0
0.6304562046384772 0.5622881188475496 0
0.6786259291441818 0.5621981517123112 0
0.03938236249337418 0.7091098825652095 0
0.2999999999993055 0.04723774929726795 0
0.7024556039582556 0.5200372393771872 0
0.726826368578132 0.562505099575485 0
0.6545296629344706 0.6041261864689124 0
0.6061411599039735 0.6041581669226386 0
2.954333097254252 0.4393531299125908 0
0.7512905139641642 0.5199435586712576 0
0.7757938242112172 0.5624873891767795 0
0.4902278874550028 0.3174350849704655 0
0.4661669324669476 0.3576870257641042 0
0.8003371868304782 0.5195844107098163 0
0.8251782158071723 0.5621174250913318 0
0.6300572939290072 0.6460588488486728 0
0.581677101888915 0.6462390077748084 0
0.7994632498085218 0.6067218912904607 0
0.850068894442807 0.6047738158182728 0
0.8747482025846163 0.5617915498272615 0
0.8998102571129438 0.6045430073239006 0
0.924588798996443 0.5614360364847856 0
0.9497125983499418 0.6046345614192383 0
0.9744389394813738 0.5613114208485291 0
0.9997656958801404 0.604758732930365 0
1.024028015453996 0.5597386087889248 0
1.050046148741532 0.6042836632406788 0
1.075213347289947 0.5607219500906248 0
1.100604808237692 0.6043040651294929 0
1.125727120818654 0.5598592244124957 0
1.151165990249003 0.6040638744783449 0
1.176319565514503 0.5595216793632644 0
1.201793840633129 0.6038781229769293 0
1.226960854257978 0.5600604284234054 0
1.252470704079807 0.6038664424080111 0
1.277198987313166 0.55874807111347 0
1.303148970446812 0.6035341865995129 0
1.328130525802366 0.5586520846649797 0
1.353966012915828 0.6034054551655909 0
1.379205474149696 0.558835304845746 0
1.404820923589671 0.6032503772964327 0
1.430092956912838 0.5587079795953892 0
1.455686300628245 0.6030926920218221 0
1.480963489515269 0.5580480170404921 0
1.506562983627252 0.6028436706904448 0
1.531847734917255 0.5577680566445021 0
1.557453558526421 0.6026435181305781 0
1.582745756648754 0.5575726351194972 0
1.608358176126191 0.6024617369905624 0
1.633656322435163 0.5573842056888257 0
1.659277805706528 0.6022873884346892 0
1.684577462424181 0.5572075399874397 0
1.710203504633815 0.6021111834258887 0
1.735506494091908 0.5570246051384745 0
1.761134606493805 0.6019307913070558 0
1.786441498808711 0.5568475628142857 0
1.812072359676459 0.6017522495250318 0
1.837381834584306 0.5566653603575672 0
1.863017119880456 0.601574020443024 0
1.888326681794851 0.5564884669211013 0
1.913963858781491 0.601395113412113 0
1.939274704592935 0.5563067813822595 0
1.964908406083961 0.6012129143420911 0
1.990224566339525 0.5561292537946573 0
2.015859329864652 0.601032757987411 0
2.041177190815608 0.5559477304122714 0
2.066818109147928 0.600855564813206 0
2.09213259478423 0.5557710179709322 0
2.117774443326183 0.6006760179252703 0
2.143088896138059 0.5555900146741853 0
2.168729305797513 0.6004921726308964 0
2.194045774061603 0.5554125217101814 0
2.219686577151481 0.6003111949874665 0
2.245003702950199 0.5552312296013228 0
2.270641766736839 0.6001298880828497 0
2.295962173634055 0.5550546947866846 0
2.321601310982481 0.599950595338254 0
2.346923922781879 0.5548708301001631 0
2.372568004594504 0.5997713467128002 0
2.397895756972162 0.5547000681173012 0
2.423546697517365 0.5996004731097838 0
2.448884659670238 0.5545095609010697 0
2.474538141419978 0.5994220729206983 0
2.499902931415869 0.5543494429014709 0
2.525546234724433 0.5993228147833797 0
2.550973655834774 0.5541346321759457 0
2.576685338327378 0.5992395038842441 0
2.602182482443039 0.5540180644105763 0
2.958944511946492 0.7598964409357507 0
2.628014314012249 0.5990918128353608 0
0.4429170888396284 0.3159793431387367 0
0.4184631156771032 0.357715436029677 0
0.3946070818022522 0.3157219358498637 0
0.3697276561976696 0.3576135465858128 0
2.449044355814981 0.643990885448769 0
2.24531935830005 0.6444881680698032 0
1.024857369602972 0.6487487015028032 0
2.041498164113345 0.6452136474256573 0
1.837701628146142 0.6459229900926835 0
0.3455853078837237 0.3150377509381005 0
0.3204780172155196 0.3574251905568473 0
0.3449438693484468 0.4002519798591844 0
1.633970683060678 0.6466170330762969 0
1.227333380683899 0.6479317947648683 0
1.430444030483603 0.6473399689389928 0
0.875196942148915 0.6483605753517908 0
0.6057010339261732 0.6883083412871458 0
0.5571396249147901 0.6885103796531055 0
2.653543252321963 0.5527758280498023 0
1.099471497978971 0.5148848291986879 0
2.602427017093663 0.6438096025956825 0
2.653851606946175 0.6437140715169269 0
1.353138019780104 0.5138574114565649 0
1.556762689169365 0.5115839513085039 0
1.760509743411542 0.5109012431757174 0
1.964341412665395 0.510388685431229 0
0.2953909602266698 0.4001745965167012 0
[...]
    <PointData>
      <DataArray type="Float64" NumberOfComponents="3" Name="Velocity" format="ascii">
3.000000082659349 0 0
0 0 0
0 0 0
3.202456134189472 0 0
3.204250246863116 0 0
3.000000000000171 0 0
2.999999976933678 0 0
2.999999737397435 0 0
3.000002218006148 0 0
2.999985649842297 0 0
3.000068380235818 0 0
2.999907430407758 0 0
2.998138797695248 0 0
3.017765643613852 0 0
2.989616178153254 0 0
1.987804610650428 0 0
0 0.009227776879163098 0
0 -0.003754878778165764 0
0 0.04076318723444836 0
0 0.1638424850529447 0
1.92814920243431 0 0
2.672315155191463 0 0
2.928778763211219 0 0
2.994068900554243 0 0
3.001940193155917 0 0
3.000356842434581 0 0
2.999854413910809 0 0
2.999996054876528 0 0
3.000011428451073 0 0
2.999996773366331 0 0
3.000000300779911 0 0
3.000000136407487 0 0
2.999999922511749 0 0
3.000000027349919 0 0
2.999999991381497 0 0
3.000000002415675 0 0
2.999999999405321 0 0
3.000000000129678 0 0
2.999999999975146 0 0
3.00000000000398 0 0
2.999999999999577 0 0
2.999999999999978 0 0
3.000000000000031 0 0
2.999999999999985 0 0
3.000000000000016 0 0
2.99999999999996 0 0
3.000000000000063 0 0
3.000000000000012 0 0
2.999999999999852 0 0
2.999999999999255 0 0
3.000000000004201 0 0
3.000000000003399 0 0
2.999999999907859 0 0
3.00000000029911 0 0
3.00000000006747 0 0
2.999999997401828 0 0
3.000000007196328 0 0
3.000000009004351 0 0
2.999999809821491 0 0
3.000001134607656 0 0
2.999996455740446 0 0
2.99999603979188 0 0
3.000089981877504 0 0
2.999625507611588 0 0
2.999455660089517 0 0
3.028970896585423 0 0
3.204179163161947 0.0006714014356834422 0
3.193962684017819 -0.0001220397885620592 0
3.195086951043597 0.0001482462966045073 0
3.194763597009246 -0.000117527440931482 0
3.196903712299637 -0.0002155411671258969 0
3.199263237509034 -8.243453141955015e-05 0
3.197295289487463 0.0001804834301507998 0
3.196571826030771 -0.0003780247851014395 0
3.200200561878822 -3.521657422267009e-05 0
3.197897867870479 0.0001318158795758428 0
3.199241826199009 0.0001476217308543746 0
3.19585209441306 0.0001549634516335352 0
3.194606005253537 -0.0007664581560346811 0
3.206511650624339 -0.0005123560090273335 0
3.025094201488123 0 0
2.999633899222104 0 0
2.99964455320482 0 0
3.000061164837587 0 0
2.999998691339122 0 0
2.99999698908594 0 0
3.000000926586144 0 0
2.999999839972993 0 0
3.000000009896825 0 0
3.000000003561218 0 0
2.999999998886789 0 0
2.999999999668904 0 0
3.000000000273456 0 0
2.999999999948562 0 0
2.999999999993067 0 0
3.000000000005463 0 0
2.999999999999184 0 0
2.999999999999766 0 0
3.000000000000148 0 0
2.999999999999957 0 0
3.000000000000011 0 0
2.999999999999999 0 0
3 0 0
3 0 0
3 0 0
3.000000000000001 0 0
3.000000000000001 0 0
2.999999999999998 0 0
3.000000000000005 0 0
3.000000000000004 0 0
2.99999999999997 0 0
3.000000000000012 0 0
3.000000000000132 0 0
2.999999999999832 0 0
2.999999999999553 0 0
3.000000000000863 0 0
3.000000000001121 0 0
2.999999999997154 0 0
2.999999999997679 0 0
3.00000000000777 0 0
3.000000000010167 0 0
2.99999999999128 0 0
2.999999999974515 0 0
2.999999999977247 0 0
2.999999999985866 0 0
2.99999999998876 0 0
2.999999999992213 0 0
2.999999999989966 0 0
2.999999999997054 0 0
3.000000000000444 0 0
2.999999999997513 0 0
2.999999999999444 0 0
3.000000000001551 0 0
2.999999999999381 0 0
3.000000000000099 0 0
3.000000000000051 0 0
3.000000000000016 0 0
2.999999999999922 0 0
2.999999999999942 0 0
3.000000000000397 0 0
2.999999999999732 0 0
2.999999999992702 0 0
3.000000000020872 0 0
2.999999999958166 0 0
3.000000000116348 0 0
2.999999999629465 0 0
2.999999999469332 0 0
3.000000001179698 0 0
3.000000002323821 0 0
2.999999999817937 0 0
2.999999988849633 0 0
2.999999976003539 0 0
2.999999968879456 0 0
2.999999969376198 0 0
2.999999991313189 0 0
3.000000015460122 0 0
3.000000000003501 -1.365503127975575e-12 0
2.00065271801128 0.2843838604476833 0
3.000000000052724 3.263393026856228e-11 0
2.999999907436448 -3.66961429140604e-09 0
2.999999999633268 -1.830151206252799e-11 0
2.999999999998919 3.85273694835963e-13 0
3.000000000000008 -7.765020425139178e-15 0
3 -7.404893549403916e-16 0
3 1.378667482399681e-15 0
2.99999999999989 3.852826575043539e-14 0
2.99999999999724 3.677742322346143e-14 0
3.000000000457463 -1.857274044869356e-10 0
2.999942800058364 9.782676567490556e-06 0
2.999999992202913 5.80594593008005e-10 0
3.000000000035148 -2.654661423233144e-12 0
3.000000000000146 1.12984408001549e-14 0
2.999999999999991 4.646683201435434e-15 0
2.99999999999681 4.638632811920284e-14 0
3.00000000004336 1.132276325347259e-12 0
2.99999988081191 6.836003482559871e-09 0
2.211669102610969 0.270789160273818 0
2.67457247538029 0.197443904629521 0
3.037862390989469 -7.722056870611647e-05 0
2.837555729117631 0.09148705733988884 0
2.947535291504427 0.04836752878714519 0
2.98766123209352 0.01061137507657769 0
2.998200169370592 0.003442301074980848 0
3.00000039874816 -1.290951428053651e-07 0
3.001071372945819 -0.0004112044274292493 0
3.000566245367934 -0.0004860327488696121 0
3.00080920952096 -0.0004586757124449096 0
3.00009854408068 -0.0002069006262778247 0
3.000279156971163 -0.0005449127397363799 0
2.999973444941831 1.796319519422214e-05 0
2.999992010219688 -3.566356323952194e-05 0
2.999971860118797 3.104572781550675e-05 0
3.000000000001037 -1.541655401553625e-12 0
2.999999999978031 -5.91548769943915e-12 0
2.999989715606366 3.040541477996214e-05 0
2.999994254213437 4.096268804355179e-05 0
2.999993848513406 -4.758625427179312e-07 0
3.00000000322495 -8.778976833876308e-10 0
3.000000685828435 -8.65363563140327e-07 0
3.000000494768647 2.533627331179616e-07 0
2.999999999978102 1.064581168869049e-11 0
3.000145135352978 -5.650236082986524e-06 0
3.000001715745908 3.649006615600121e-05 0
3.000000746278858 -2.35375121397999e-06 0
2.999999998388759 -2.409624030201322e-06 0
3.000000226705914 -1.697684333348764e-06 0
3.046966785833245 -0.000141241717005387 0
3.000006281847112 2.17614870137324e-05 0
2.99999978253912 -3.974427353494029e-06 0
3.002036133489157 -0.000670000268053675 0
3.000258374281366 -0.0002088656168721718 0
3.00000785044231 6.47446096373251e-06 0
2.999998149936957 -2.905839671148337e-06 0
2.999999993082396 3.941528170124163e-07 0
2.999999924616974 4.499603434828393e-07 0
2.999999663108714 2.233477606484884e-07 0
3.000000187826343 5.753240042043639e-07 0
2.999998672859776 -3.422973007124018e-07 0
3.000000348502689 2.636163046616392e-07 0
2.999999968335579 7.877421304222982e-07 0
3.000000117679805 -8.639260698824587e-08 0
3.000000430665492 2.076406783968008e-07 0
2.999999906641982 -8.627819788873247e-08 0
3.00000012374873 -1.98051274887972e-07 0
2.999999953493132 2.926263455161261e-08 0
2.999999922903591 -4.246920049515678e-08 0
3.000000010513456 2.281616528167207e-08 0
2.999999953238012 4.850444418342675e-08 0
3.000000014667233 -1.180399960216097e-08 0
3.000000017938355 -1.221955056295196e-09 0
2.999999996522013 -1.500820433586671e-09 0
3.000000007713963 -7.426571765944037e-09 0
2.999999997627281 2.386450735141178e-09 0
2.999999994374351 2.809139602182697e-09 0
3.000000001516413 -7.972441773312417e-10 0
3.000000001373039 -4.498262619269771e-10 0
2.99999999966765 9.679873011733314e-11 0
2.999999999994791 -2.794379001270936e-11 0
2.999999999957534 3.188655983004478e-11 0
2.999999999885891 3.739542886826324e-11 0
3.00000000006139 -2.314237389725762e-11 0
3.000000000053076 -1.34571461146215e-11 0
2.999999999971982 8.542966622041189e-12 0
2.999999999983095 3.569450501407427e-12 0
3.000000000009182 -2.444297943768058e-12 0
3.000000000004673 -8.33494476079347e-13 0
2.999999999997413 6.221421192949479e-13 0
2.999999999998754 1.83251847245694e-13 0
3.000000000000702 -1.528875846725174e-13 0
3.00000000000031 -3.559746940029413e-14 0
2.99999999999981 3.789996182380383e-14 0
2.999999999999932 4.965020391762385e-15 0
3.000000000000054 -8.269778341357045e-15 0
3.000000000000012 -2.732662031985424e-16 0
2.999999999999985 2.095023740232546e-15 0
2.999999999999996 -1.640839100436459e-16 0
3.000000000000002 -1.592713373040128e-15 0
3.000000000000005 -8.266527132846679e-16 0
2.999999999999999 5.937913019820962e-15 0
2.999999999999988 4.703156984914323e-15 0
3.000000000000012 -1.994530003293482e-14 0
2.999999999999996 -1.34462752631744e-14 0
2.999999999999971 4.134425942404403e-14 0
3.000000000000107 2.457356443962961e-14 0
2.999999999999917 -4.479532810662491e-14 0
2.999999999999889 -3.124967184999132e-14 0
3.000000000000267 -3.055737518820889e-14 0
2.999999999999135 3.095108718553482e-14 0
3.000000000001808 2.34920597028828e-13 0
3.000000000001942 -7.568764517600049e-14 0
2.999999999986681 -4.319953778121946e-13 0
3.000000000013604 4.079406692635637e-13 0
3.000000000025371 2.017365562513346e-13 0
2.99999999991211 -1.917824372257095e-12 0
3.00000000008778 7.296718012024727e-13 0
3.000000000129594 8.433781275877709e-12 0
2.999999999381257 -1.911237606392094e-12 0
3.000000000565994 -3.667326173465276e-11 0
3.000000001458258 4.539595345082329e-13 0
2.999999996853223 1.644478550432809e-10 0
2.999999996797274 2.698231245472398e-11 0
3.000000012045378 -6.488725453457083e-10 0
3.000000015670305 -2.090271074548273e-10 0
2.999999957941783 1.095679906714613e-09 0
2.999999917744122 1.044003539762718e-09 0
3.000000061842491 7.656036612142511e-09 0
3.055979411316464 0.0001124475889039083 0
3.000000441680209 -1.386123334811435e-09 0
3.000363074472059 -0.0002218437044555732 0
2.999910122107271 2.835585801150502e-05 0
2.99984952942825 3.886371655961127e-05 0
2.999997325386016 5.998436330943929e-06 0
2.999999996918969 -1.564089390678214e-10 0
3.000000000014815 4.535240866743548e-13 0
3.000000021061326 2.597892615740935e-08 0
2.999999999999947 -1.111234380598267e-13 0
3.000000000000006 4.255378899938844e-16 0
3.000006822751206 1.263384448495538e-06 0
3.000005206811539 -1.65219686257991e-06 0
3.000005160602606 -2.105047788579697e-06 0
3.000000000000877 -2.511416968873943e-13 0
3.000000001090184 3.532896008607982e-10 0
3.000000000009063 -1.070940809169566e-11 0
3.000000032283303 -6.902682768429217e-08 0
2.999999988671172 3.843252540772726e-08 0
3.000000009790136 -5.752498393411922e-08 0
3.000000420384049 -5.799920725120523e-08 0
3.000000082499525 -1.502084681475224e-07 0
3.00000007651884 -6.577926185455585e-09 0
3.000000360321626 4.505488277266984e-08 0
3.000000001133052 -3.229827680693113e-10 0
3.000000000000964 -8.824782354454251e-13 0
3.000000000000051 -9.644678649314794e-15 0
3.000000000000039 1.91933787799957e-14 0
2.99999966430272 -1.745337833005394e-07 0
2.999999366558882 -1.304676847979683e-08 0
3.000000000001148 -2.649184861420942e-14 0
2.999999999409324 2.596636334545675e-12 0
2.999999880979283 5.513527039474796e-09 0
2.999982116635186 2.72328500511978e-05 0
2.999998406058524 1.542362420118596e-07 0
3.000000589916294 1.518797914992156e-08 0
2.999998174715017 5.365617187468718e-08 0
3.00000000450384 -2.92848195786473e-08 0
2.999999997630988 -4.778340453176902e-08 0
3.000000000523626 -1.384459485457092e-09 0
3.000000026044082 -5.255226193622363e-08 0
2.999999994361334 9.251528319411063e-09 0
3.000000006039303 -1.447606326659661e-08 0
2.999999997110554 4.810308793036264e-09 0
2.999999990002804 7.676736563230987e-09 0
3.000000002468866 -1.822279184415096e-09 0
2.999999997543207 4.253443054837604e-09 0
3.000000000184138 -7.772336307939706e-10 0
3.000000003141764 -2.096072106151266e-09 0
1.271087168967382 0.05809982966024788 0
3.000241116693461 -8.74815182135556e-05 0
2.999999999347282 5.600583939015156e-10 0
3.000003835911104 -5.985946029762061e-07 0
2.999946347004981 -1.736789616102261e-05 0
2.999999684929877 1.863803441921908e-07 0
3.002462606826809 0.0003508671036064124 0
2.999999999050236 1.984128811620935e-10 0
3.000000606964683 -1.153223778936131e-09 0
3.000000066208161 -1.690449629633255e-10 0
2.999995092054514 7.695623799544051e-09 0
2.999998931062335 -4.090904750653602e-07 0
2.871589799361715 0.04704838343380519 0
2.999999998909224 8.636256855206335e-09 0
2.999998640658315 8.033865301363927e-08 0
2.999999998172122 2.552257125742397e-10 0
3.000000023513667 -4.266399147955707e-09 0
3.000011167968471 -2.194128810969813e-06 0
2.999998734057037 7.426891846161657e-07 0
3.000000000002512 3.785355759137258e-13 0
3.000000000025963 -9.105008924684028e-12 0
2.999999999998219 -3.776736348723399e-13 0
2.999999999999987 1.257106034839548e-15 0
3.000000000000061 -1.581716579435292e-14 0
3.000000000009487 -3.334079171004652e-12 0
3.000000000000016 -2.906338311980825e-13 0
3.00000000000004 1.539846949944591e-14 0
2.999999999291001 2.500143239030758e-11 0
2.999999999966159 7.943114129412766e-13 0
2.999999999999822 2.074167390463343e-15 0
2.99999998983191 -4.645864529788417e-08 0
3.000000001881598 -2.459977981395959e-11 0
2.999999999627097 2.216780051840411e-10 0
2.999999999999785 9.359542901839984e-14 0
3.000000000000004 -1.000536254391518e-14 0
2.999999993783816 -4.069626972470359e-10 0
3.000000000007628 8.17575425702882e-13 0
3.000000000000677 -9.153138745636268e-14 0
3.000000000041574 8.358243822435106e-13 0
3.000000000000001 -2.181499869465892e-16 0
3.000000000000004 -5.671766836927038e-15 0
2.999999999999975 1.632890505900373e-13 0
2.999999996816799 -6.413433377793376e-09 0
3.000000000000037 3.451209311797819e-14 0
3.000000000000004 1.814802302200261e-15 0
3.000000000000272 -9.948549635919859e-14 0
3.000000000007696 -6.97000967300627e-12 0
3.000000000175364 -3.351229920693042e-12 0
3.000000000011802 9.508708462811398e-13 0
2.999999990913294 1.439233344596802e-08 0
2.999999871074832 3.394354873401099e-09 0
2.999999998880258 -8.669306234293027e-09 0
2.999968537430799 4.558935492144717e-06 0
3.001647632120149 5.880965651451618e-05 0
2.999999997410598 8.035440317880252e-11 0
2.999999693130677 1.549631550766008e-07 0
2.999999999323357 6.031342277724225e-10 0
3.000486961450143 0.0002466264177339958 0
3.000000127242393 -3.725412070528236e-08 0
3.00000000033799 -1.829578988120258e-10 0
3.000000002452915 2.815895617950693e-10 0
3.000000001833409 -1.968683794984819e-09 0
3.00001930138541 -1.191911219644907e-07 0
3.000000543313261 -2.056224768731209e-08 0
2.999999885664362 6.972269959817292e-09 0
3.000000001409231 -1.971490923975926e-09 0
3.000000000017264 -4.235737197292497e-12 0
3.000000026378304 -5.282573390643544e-09 0
3.000046176173235 -5.245308963458428e-07 0
3.000000000033389 -8.348697482705527e-11 0
3.000004236016399 -2.416412480667554e-06 0
3.000015516922062 -3.860779670256333e-06 0
2.999993671388357 1.42152189024244e-06 0
2.999999868835642 6.220684463336511e-09 0
2.999998291394445 4.096526529955669e-07 0
3.000047276029209 4.706337316249839e-07 0
3.048183967343756 0.0003810392136172459 0
3.034960641407859 -0.0004560064944224476 0
2.999999078669332 3.388995731172939e-07 0
2.999999999943996 5.477139163764914e-11 0
3.00000323368364 3.082998332937594e-05 0
2.999929534926865 -9.932308222242867e-05 0
2.999956413842289 4.154429899689826e-05 0
3.000023597515216 -7.004960300352575e-07 0
3.0000000487179 4.13189268289616e-07 0
2.753299815768362 0.0790128094444814 0
3.000001434699623 -1.576546213326749e-06 0
3.000000134852716 -3.511423292430516e-08 0
2.999999983021581 -1.352747086630445e-09 0
2.999999975585618 2.445891380935652e-09 0
3.000000926185911 -1.394251957895471e-07 0
3.000000000019167 -2.238222028195471e-12 0
2.999984402900122 -0.0003575009586091374 0
2.999875850464864 2.384932195143409e-05 0
3.000431654721629 -0.0004993080168140443 0
2.999980593097009 5.75741073110152e-06 0
3.000042264425124 -3.956930772292247e-07 0
3.000000000001037 -8.0109057981122e-12 0
2.999999999899156 3.839801547512529e-12 0
3.000000065958662 3.376825217547733e-09 0
2.999999956017967 1.466516772758834e-09 0
3.000000020845059 -1.460233194566609e-09 0
3.000000012932029 -7.09294782532207e-10 0
2.999999995766366 2.41546271675108e-10 0
2.999999996936597 1.884700051165834e-10 0
3.000000001734315 -4.617931627666114e-11 0
3.000000000250962 -4.850024652537352e-11 0
2.999999999345402 1.315678046573446e-11 0
3.000000000215209 1.16965415505239e-11 0
3.000000000086795 -5.457701679259567e-12 0
2.999999999913387 4.668113763708673e-13 0
3.000000000027196 8.310680780108184e-13 0
3.000000000007385 -1.418228650631786e-12 0
2.999999999983998 6.375772655099345e-13 0
3.000000000005105 2.72449473659348e-13 0
3.000000000003718 -5.479924208781676e-13 0
2.999999999997411 1.718929661752918e-13 0
2.999999999999643 2.789147145228794e-13 0
3.000000000000694 -1.645484784331922e-13 0
2.999999999999919 -1.231430370700615e-13 0
2.999999999999868 9.239785388801594e-14 0
3.000000000000066 4.346925657667455e-14 0
3.000000000000015 -4.635068860248534e-14 0
2.999999999999969 -6.114003676017211e-15 0
3.000000000000002 2.085084554790404e-14 0
3.000000000000013 -5.144442614860881e-15 0
3 -7.817490683547055e-15 0
2.999999999999996 5.855311949263531e-15 0
3 2.233828114700482e-15 0
3.000000000000002 -3.395883158201244e-15 0
3.000000000000002 -3.225192870720834e-16 0
3 1.016264793763256e-15 0
3.000000000000002 -8.108318151807401e-16 0
2.999999999999991 3.070379801433165e-15 0
2.99999999999999 4.98144637930881e-15 0
3.000000000000046 -1.965819178991244e-14 0
3.000000000000019 -1.505276717051917e-14 0
2.999999999999893 6.450565839632231e-14 0
3.000000000000013 1.828191173062758e-14 0
3.000000000000057 -1.136811539857151e-13 0
2.999999999999838 3.532929379843392e-14 0
3.000000000000538 -4.4791008434529e-14 0
3.000000000000325 -2.345851519872567e-13 0
2.999999999998168 9.526400855276635e-13 0
3.00000000000021 4.499540151481952e-13 0
3.000000000001261 -2.708794615575609e-12 0
2.999999999997849 2.222851699033589e-13 0
3.000000000007307 1.708575785355388e-12 0
3.000000000001966 -2.812695318359983e-12 0
2.999999999982751 1.07625102449079e-11 0
3.000000000009722 3.858527608431546e-12 0
2.999999999978986 -2.931092001620036e-11 0
2.999999999979951 7.684037117775881e-12 0
3.000000000114055 -8.198087966555118e-12 0
2.999999999964511 -2.368808051434505e-11 0
3.000000000038729 1.312129145251008e-10 0
3.00000000011845 -8.41505118162717e-12 0
2.999999999419297 -8.434247332394036e-11 0
3.000000000058828 8.467617640877291e-11 0
3.000000000221462 -3.772479826200478e-10 0
2.999999999617267 -5.476467736656707e-11 0
3.000000001518283 6.192115933873905e-10 0
3.000000000082375 -1.807219397452879e-10 0
2.999999998453047 3.89861851311644e-10 0
3.000000001017628 4.516569839538238e-10 0
2.999999996207357 -2.862488103519942e-09 0
3.000000000350214 6.771576369726146e-10 0
2.999999999856939 -2.107886993459062e-09 0
2.99999999844072 -1.156942134314103e-09 0
3.000000005130924 5.13539437253688e-09 0
2.999999997661541 -2.905615829441855e-09 0
3.000021268147432 3.567726998563552e-08 0
2.999985414224315 -3.313027777364334e-06 0
2.999999992491687 7.463222383405068e-09 0
3.000000006331567 -2.920008803907291e-09 0
3.00000714768248 -2.201043598204054e-06 0
3.000076278107018 -1.279738709088498e-05 0
2.999753991435764 7.012922259984837e-06 0
3.000000006916496 1.178949981263978e-08 0
2.999999998153003 -2.418956144839798e-09 0
2.999999992955408 -8.954977564842371e-09 0
3.000000296886996 -8.059063001339623e-08 0
2.999615986732278 7.543737441575109e-07 0
2.999989555480782 -6.640692713915106e-06 0
2.999227887084024 -1.877165483586409e-05 0
2.9997662106633 2.059578963094243e-07 0
3.000048588633199 1.165055292880127e-07 0
3.000003022259431 2.717240909024125e-06 0
3.000020042237465 -5.809853200465292e-07 0
3.000053572353734 -5.848614292585042e-07 0
2.999998808876605 -8.215316825008324e-07 0
3.000030050057973 -2.66756108710509e-07 0
2.999996150354082 8.871574067981827e-09 0
2.999947180220599 6.71585893426261e-07 0
2.999998068872521 7.692479052425772e-08 0
3.000000259744147 1.891567763421075e-08 0
2.999999456875574 3.902923634578531e-07 0
2.999999614730285 -2.038062337970983e-07 0
2.999999998694036 2.858352616015295e-09 0
3.000000000290619 1.212481534159199e-10 0
2.999999774658596 4.706859378203993e-09 0
2.999999999999975 2.418557523768609e-14 0
2.558941503626775 -0.004689424830381844 0
3.000000563529241 1.908065118490511e-08 0
3.000000082987191 -3.261927352468548e-09 0
2.999999897200738 -8.033707265874351e-09 0
2.999999956405706 -3.021442356486036e-10 0
3.000000016166443 1.54458277307182e-09 0