<?xml version="1.0"?>
<VTKFile type="UnstructuredGrid">
  <UnstructuredGrid>
  <Piece NumberOfPoints="1224"  NumberOfCells="2290">
    <Points>
      <DataArray type="Float64" NumberOfComponents="3" format="ascii">
0 0 0
0.6 0 0
0.6 0.2 0
3 0.2 0
3 1 0
0 1 0
0.05454545454535233 0 0
0.1090909090906768 0 0
0.1636363636359771 0 0
0.2181818181812728 0 0
0.2727272727265793 0 0
0.3272727272720317 0 0
0.3818181818176247 0 0
0.4363636363632168 0 0
0.4909090909088285 0 0
0.5454545454544089 0 0
0.6 0.03999999999991203 0
0.6 0.07999999999979179 0
0.6 0.1199999999997886 0
0.6 0.1599999999998948 0
0.6510638297871261 0.2 0
0.7021276595742618 0.2 0
0.7531914893613819 0.2 0
0.8042553191485237 0.2 0
0.8553191489356438 0.2 0
0.9063829787228289 0.2 0
0.957446808509926 0.2 0
1.008510638297009 0.2 0
1.059574468084092 0.2 0
1.110638297871174 0.2 0
1.161702127658257 0.2 0
1.21276595744534 0.2 0
1.263829787232422 0.2 0
1.314893617019505 0.2 0
1.365957446806588 0.2 0
1.417021276593671 0.2 0
1.468085106380754 0.2 0
1.519148936167923 0.2 0
1.570212765955006 0.2 0
1.621276595742088 0.2 0
1.672340425529171 0.2 0
1.723404255316254 0.2 0
1.774468085103337 0.2 0
1.825531914890624 0.2 0
1.876595744677951 0.2 0
1.927659574465349 0.2 0
1.978723404252714 0.2 0
2.029787234040074 0.2 0
2.080851063827477 0.2 0
2.131914893614798 0.2 0
2.182978723402204 0.2 0
2.234042553189523 0.2 0
2.285106382976928 0.2 0
2.336170212764247 0.2 0
2.387234042551653 0.2 0
2.438297872338975 0.2 0
2.489361702126377 0.2 0
2.540425531913739 0.2 0
2.591489361701102 0.2 0
2.642553191488421 0.2 0
2.693617021275827 0.2 0
2.744680851063146 0.2 0
2.795744680850551 0.2 0
2.84680851063787 0.2 0
2.897872340425276 0.2 0
2.948936170212618 0.2 0
3 0.2533333333332341 0
3 0.3066666666664725 0
3 0.3599999999996274 0
3 0.413333333332804 0
3 0.4666666666659806 0
3 0.5199999999991571 0
3 0.5733333333323336 0
3 0.6266666666656895 0
3 0.6799999999991551 0
3 0.7333333333326146 0
3 0.7866666666660802 0
3 0.8399999999995775 0
3 0.8933333333330373 0
3 0.9466666666664969 0
2.949152542373491 1 0
2.898305084746983 1 0
2.847457627120474 1 0
2.796610169493702 1 0
2.745762711866469 1 0
2.694915254239208 1 0
2.644067796611963 1 0
2.593220338985156 1 0
2.542372881358647 1 0
2.491525423732018 1 0
2.44067796610481 1 0
2.389830508477549 1 0
2.338983050850287 1 0
2.288135593223026 1 0
2.237288135595765 1 0
2.186440677968504 1 0
2.135593220341243 1 0
2.084745762713982 1 0
2.033898305086721 1 0
1.983050847459614 1 0
1.932203389832729 1 0
1.881355932205844 1 0
1.830508474578958 1 0
1.779661016952073 1 0
1.728813559325189 1 0
1.677966101698303 1 0
1.627118644071418 1 0
1.576271186444533 1 0
1.525423728817648 1 0
1.474576271190575 1 0
1.423728813563314 1 0
1.372881355936053 1 0
1.322033898308791 1 0
1.27118644068153 1 0
1.220338983054269 1 0
1.169491525427008 1 0
1.118644067799747 1 0
1.067796610172485 1 0
1.016949152545224 1 0
0.9661016949179628 1 0
0.9152542372907018 1 0
0.8644067796634407 1 0
0.8135593220361792 1 0
0.7627118644089181 1 0
0.7118644067816566 1 0
0.661016949154396 1 0
0.6101694915271345 1 0
0.5593220338998739 1 0
0.5084745762726124 1 0
0.4576271186453518 1 0
0.4067796610180903 1 0
0.3559322033908292 1 0
0.3050847457635677 1 0
0.2542372881363066 1 0
0.2033898305090456 1 0
0.1525423728817841 1 0
0.101694915254523 1 0
0.05084745762726151 1 0
0 0.9473684210524125 0
0 0.8947368421048248 0
0 0.8421052631576025 0
0 0.7894736842105994 0
0 0.7368421052635962 0
0 0.6842105263165927 0
0 0.6315789473695894 0
0 0.5789473684225861 0
0 0.5263157894755828 0
0 0.4736842105282874 0
0 0.4210526315806998 0
0 0.3684210526331123 0
0 0.3157894736855248 0
0 0.2631578947379374 0
0 0.21052631579035 0
0 0.1578947368427625 0
0 0.1052631578951749 0
0 0.05263157894758741 0
0.4374856279758046 0.955462795473483 0
0.625531914893563 0.2394317949808221 0
0.7891616249544176 0.9557759867023439 0
2.570562443351098 0.9559758769411787 0
2.364406779663917 0.9559648099769389 0
2.161016949154874 0.9559648099769389 0
1.957627118646171 0.9559648099772646 0
1.756856606547665 0.9560078743553572 0
1.553415402058453 0.9561420672712786 0
1.347457627122422 0.95627738856474 0
1.144067796613377 0.9563034567995272 0
0.04146670856173688 0.5498854761242812 0
0.9828861012149002 0.2442383967812095 0
2.465390809289578 0.2421522008426663 0
2.259572257543314 0.243586373321511 0
2.055319178697841 0.24363095694403 0
1.851066099915384 0.2436741865527954 0
1.646810778591931 0.2437170671454607 0
1.442550972205278 0.2437587738062726 0
1.238275543433999 0.2442249255777628 0
0.5808319854219957 0.2417757800606361 0
0.6039807146029165 0.2785115072887754 0
2.951522810440164 0.5995349944823752 0
0.5591131416216563 0.2791940688436214 0
0.5817690965011905 0.3180386921514113 0
0.5363223429032008 0.3181181454258206 0
0.5590799034518541 0.3577335228902347 0
2.671507320584846 0.2416532643303031 0
0.5129751095268966 0.3576683284772433 0
0.5360042291720796 0.3976917483469583 0
0.5824744072527975 0.3977458985417416 0
0.5593202208963615 0.4382323507424581 0
0.6062221806132498 0.4382172989803606 0
0.5831398502988122 0.4790536480492864 0
0.630245509211025 0.4792447281197085 0
0.5373735766893435 0.4817209888486334 0
0.2780994584865757 0.9660670791366374 0
0.9407829849899363 0.9559852449915113 0
0.6069171020766708 0.5203953730037822 0
0.6544691944766102 0.5205851219036783 0
2.724115018794794 0.9563165682871465 0
0.04341732373162228 0.2894490564426765 0
0.6304562046384772 0.5622881188475496 0
0.6786259291441818 0.5621981517123112 0
0.03938236249337418 0.7091098825652095 0
0.2999999999993055 0.04723774929726795 0
0.7024556039582556 0.5200372393771872 0
0.726826368578132 0.562505099575485 0
0.6545296629344706 0.6041261864689124 0
0.6061411599039735 0.6041581669226386 0
2.954333097254252 0.4393531299125908 0
0.7512905139641642 0.5199435586712576 0
0.7757938242112172 0.5624873891767795 0
0.4902278874550028 0.3174350849704655 0
0.4661669324669476 0.3576870257641042 0
0.8003371868304782 0.5195844107098163 0
0.8251782158071723 0.5621174250913318 0
0.6300572939290072 0.6460588488486728 0
0.581677101888915 0.6462390077748084 0
0.7994632498085218 0.6067218912904607 0
0.850068894442807 0.6047738158182728 0
0.8747482025846163 0.5617915498272615 0
0.8998102571129438 0.6045430073239006 0
0.924588798996443 0.5614360364847856 0
0.9497125983499418 0.6046345614192383 0
0.9744389394813738 0.5613114208485291 0
0.9997656958801404 0.604758732930365 0
1.024028015453996 0.5597386087889248 0
1.050046148741532 0.6042836632406788 0
1.075213347289947 0.5607219500906248 0
1.100604808237692 0.6043040651294929 0
1.125727120818654 0.5598592244124957 0
1.151165990249003 0.6040638744783449 0
1.176319565514503 0.5595216793632644 0
1.201793840633129 0.6038781229769293 0
1.226960854257978 0.5600604284234054 0
1.252470704079807 0.6038664424080111 0
1.277198987313166 0.55874807111347 0
1.303148970446812 0.6035341865995129 0
1.328130525802366 0.5586520846649797 0
1.353966012915828 0.6034054551655909 0
1.379205474149696 0.558835304845746 0
1.404820923589671 0.6032503772964327 0
1.430092956912838 0.5587079795953892 0
1.455686300628245 0.6030926920218221 0
1.480963489515269 0.5580480170404921 0
1.506562983627252 0.6028436706904448 0
1.531847734917255 0.5577680566445021 0
1.557453558526421 0.6026435181305781 0
1.582745756648754 0.5575726351194972 0
1.608358176126191 0.6024617369905624 0
1.633656322435163 0.5573842056888257 0
1.659277805706528 0.6022873884346892 0
1.684577462424181 0.5572075399874397 0
1.710203504633815 0.6021111834258887 0
1.735506494091908 0.5570246051384745 0
1.761134606493805 0.6019307913070558 0
1.786441498808711 0.5568475628142857 0
1.812072359676459 0.6017522495250318 0
1.837381834584306 0.5566653603575672 0
1.863017119880456 0.601574020443024 0
1.888326681794851 0.5564884669211013 0
1.913963858781491 0.601395113412113 0
1.939274704592935 0.5563067813822595 0
1.964908406083961 0.6012129143420911 0
1.990224566339525 0.5561292537946573 0
2.015859329864652 0.601032757987411 0
2.041177190815608 0.5559477304122714 0
2.066818109147928 0.600855564813206 0
2.09213259478423 0.5557710179709322 0
2.117774443326183 0.6006760179252703 0
2.143088896138059 0.5555900146741853 0
2.168729305797513 0.6004921726308964 0
2.194045774061603 0.5554125217101814 0
2.219686577151481 0.6003111949874665 0
2.245003702950199 0.5552312296013228 0
2.270641766736839 0.6001298880828497 0
2.295962173634055 0.5550546947866846 0
2.321601310982481 0.599950595338254 0
2.346923922781879 0.5548708301001631 0
2.372568004594504 0.5997713467128002 0
2.397895756972162 0.5547000681173012 0
2.423546697517365 0.5996004731097838 0
2.448884659670238 0.5545095609010697 0
2.474538141419978 0.5994220729206983 0
2.499902931415869 0.5543494429014709 0
2.525546234724433 0.5993228147833797 0
2.550973655834774 0.5541346321759457 0
2.576685338327378 0.5992395038842441 0
2.602182482443039 0.5540180644105763 0
2.958944511946492 0.7598964409357507 0
2.628014314012249 0.5990918128353608 0
0.4429170888396284 0.3159793431387367 0
0.4184631156771032 0.357715436029677 0
0.3946070818022522 0.3157219358498637 0
0.3697276561976696 0.3576135465858128 0
2.449044355814981 0.643990885448769 0
2.24531935830005 0.6444881680698032 0
1.024857369602972 0.6487487015028032 0
2.041498164113345 0.6452136474256573 0
1.837701628146142 0.6459229900926835 0
0.3455853078837237 0.3150377509381005 0
0.3204780172155196 0.3574251905568473 0
0.3449438693484468 0.4002519798591844 0
1.633970683060678 0.6466170330762969 0
1.227333380683899 0.6479317947648683 0
1.430444030483603 0.6473399689389928 0
0.875196942148915 0.6483605753517908 0
0.6057010339261732 0.6883083412871458 0
0.5571396249147901 0.6885103796531055 0
2.653543252321963 0.5527758280498023 0
1.099471497978971 0.5148848291986879 0
2.602427017093663 0.6438096025956825 0
2.653851606946175 0.6437140715169269 0
1.353138019780104 0.5138574114565649 0
1.556762689169365 0.5115839513085039 0
1.760509743411542 0.5109012431757174 0
1.964341412665395 0.510388685431229 0
0.2953909602266698 0.4001745965167012 0
[...]
    <PointData>
      <DataArray type="Float64" NumberOfComponents="3" Name="Velocity" format="ascii">
2.999999911699564 0 0
0 0 0
0 0 0
3.237431122091394 0 0
3.237360112781651 0 0
3.000000000032707 0 0
3.000000037813864 0 0
3.000000510544907 0 0
2.99999551886427 0 0
2.999984223322386 0 0
3.000346280180656 0 0
3.001179087466247 0 0
2.965153910707137 0 0
2.587692633707456 0 0
1.500123275054354 0 0
0.3888325818595323 0 0
0 0.1097686786641557 0
0 0.1842827064224547 0
0 0.3028374481524332 0
0 0.4685107907598832 0
1.457266791920272 0 0
2.062512452942167 0 0
2.402424979268654 0 0
2.633237029374289 0 0
2.781979920611124 0 0
2.886644035490652 0 0
2.944770651715833 0 0
2.975130135169743 0 0
2.98925155137325 0 0
2.996495314896733 0 0
2.998840998611418 0 0
2.999785264884252 0 0
3.000003747857515 0 0
3.000016953576623 0 0
3.000008921078829 0 0
3.000000205912029 0 0
2.99999941370515 0 0
2.999999820449926 0 0
3.000000051650447 0 0
3.000000015656907 0 0
2.999999992908892 0 0
3.000000001328692 0 0
2.999999999792134 0 0
3.000000000026775 0 0
2.999999999997166 0 0
2.999999999997832 0 0
3.000000000007446 0 0
2.999999999985328 0 0
3.000000000024978 0 0
2.999999999967145 0 0
3.000000000003456 0 0
3.000000000087493 0 0
2.999999999903254 0 0
2.999999999806529 0 0
3.000000000494473 0 0
2.999999999708952 0 0
3.000000000178531 0 0
2.999999987663342 0 0
3.00000007515391 0 0
3.000000260817446 0 0
2.999997940835034 0 0
2.999984516660974 0 0
3.00002696906615 0 0
3.000785990414458 0 0
3.007422666030459 0 0
3.055033520597659 0 0
3.238365550307739 0.00158131161824146 0
3.228123722385508 0.0009826520860220578 0
3.229497531578319 0.0008283233708543097 0
3.229751529006791 2.851762541002119e-05 0
3.232578185004307 -0.0004381451723053484 0
3.234517128953601 -0.000596454654589549 0
3.232048211648403 -0.0002568611559110275 0
3.23111250405381 -0.0004057191513448669 0
3.234818045852085 2.012852181352577e-05 0
3.232913819879248 6.163240640333455e-05 0
3.233811141432178 -0.0002017167666988883 0
3.230242846973304 -0.0006466272511953949 0
3.22757131031129 -0.001718320734432715 0
3.238492146804778 -0.001276336307146358 0
3.050469454251308 0 0
3.008082179018159 0 0
3.000917749469206 0 0
3.000048177491707 0 0
2.999991031466516 0 0
2.999997822622909 0 0
3.000000098609677 0 0
3.000000073682023 0 0
2.999999994533757 0 0
2.999999999369139 0 0
2.999999999830301 0 0
3.000000000453089 0 0
2.999999999830765 0 0
2.999999999923272 0 0
3.000000000058825 0 0
3.000000000008362 0 0
2.999999999984108 0 0
2.999999999997833 0 0
3.000000000012613 0 0
2.999999999987824 0 0
3.000000000007575 0 0
2.999999999997084 0 0
3.000000000000013 0 0
3.000000000001095 0 0
2.999999999998702 0 0
3.000000000001242 0 0
2.999999999999662 0 0
2.999999999997438 0 0
3.000000000003513 0 0
3.000000000006576 0 0
2.999999999982589 0 0
2.999999999980548 0 0
3.000000000067629 0 0
3.000000000066856 0 0
2.999999999790002 0 0
2.999999999644128 0 0
3.00000000048915 0 0
3.000000001114734 0 0
3.000000000678307 0 0
2.999999999571202 0 0
2.999999999158377 0 0
2.999999999234768 0 0
3.000000000099706 0 0
3.00000000135613 0 0
3.000000001080095 0 0
3.000000000058921 0 0
2.999999999663918 0 0
3.000000000060792 0 0
3.000000000127739 0 0
2.999999999915739 0 0
3.000000000002008 0 0
3.000000000022371 0 0
2.999999999998247 0 0
3.000000000006387 0 0
2.999999999997209 0 0
3.000000000003529 0 0
3.000000000011383 0 0
3.000000000019575 0 0
3.00000000001967 0 0
3.000000000030114 0 0
2.999999999823382 0 0
3.000000000257066 0 0
3.000000000364711 0 0
3.000000000279195 0 0
3.000000000306847 0 0
3.00000000151015 0 0
2.999999999550751 0 0
2.999999997867893 0 0
3.000000003139585 0 0
3.000000005030039 0 0
3.000000002087612 0 0
2.999999995819256 0 0
2.999999991702172 0 0
2.999999957509969 0 0
2.999999930111128 0 0
2.99999992902251 0 0
3.000000000129613 -1.551176689079389e-10 0
1.442807975920762 0.5203909101640287 0
2.999999995783773 1.150576662457566e-08 0
3.000000019372604 -1.889996960475228e-09 0
2.999999999983066 5.61217070297736e-12 0
3.000000000008988 4.211831148154952e-12 0
3.00000000000319 -3.259277665602724e-13 0
3.000000000001551 -2.023590215217014e-13 0
3.000000000005397 -8.441969235843968e-13 0
3.000000000028634 -4.910339716254312e-11 0
3.00000000091885 -7.661857353397611e-10 0
3.000000000301183 2.852182127950981e-10 0
2.967313554381368 0.01329601436078446 0
3.000000001762426 -8.243346704824859e-11 0
2.999999999964588 1.912751511383957e-11 0
2.999999999994995 -1.476332691209065e-12 0
3.000000000029723 -8.266203611604702e-14 0
2.999999994967218 8.487488390371607e-10 0
2.999999274000168 2.244637735516492e-07 0
2.999979069219419 -4.810327492889083e-05 0
1.425251929967914 0.676217749473475 0
2.007885461781473 0.6306548560543304 0
3.068263589214584 -0.000265322187398937 0
2.150944220946158 0.5105126236649276 0
2.468846146396554 0.4226326698571444 0
2.663354243673294 0.231729728193488 0
2.801641735629135 0.1725706057389646 0
2.999999558976905 -1.430011056750167e-07 0
2.912461654199577 0.06618741707143286 0
2.950232433724951 0.04601948498024339 0
2.897038126321467 0.1094534507893821 0
2.975182631143737 0.02755841839922928 0
2.951667773949613 0.06134384537133725 0
2.988887590868344 0.01462958389256726 0
2.979488238845576 0.03072690307964621 0
2.995978723732453 0.004897132383443936 0
2.999999999979498 4.737866591496186e-12 0
2.999999997453988 9.198649536568508e-09 0
2.995612426613514 0.00681203278049344 0
2.992164272515787 0.01378051648741118 0
2.999993736242898 -2.174714452738534e-07 0
2.999999998505383 1.543187330547513e-09 0
2.998507870839953 0.002722272701862577 0
2.997341776270032 0.005465936121433608 0
2.999999999954221 2.110380936773095e-10 0
3.000936317641643 -3.241426414044316e-05 0
2.988757998940422 0.02415859424703627 0
2.996341954169154 0.009390146596152163 0
2.999552309918533 0.000953954340857069 0
2.999806513636762 0.000382020401131153 0
3.079362602312236 -0.0002836321774660271 0
2.9891489087089 0.03107278414031595 0
2.996728234228138 0.01183960192967526 0
2.867869040695437 0.0797959913143893 0
2.975883250540478 0.01675993576495212 0
2.99288168462915 0.03005622400452971 0
2.998162838365213 0.0111159873183665 0
2.999954123656976 0.0001086292101683633 0
2.999988933016213 2.787608060907477e-05 0
2.99917826837466 0.003727133852273962 0
2.999610526841537 0.003467919015255318 0
2.999566319590014 0.008723034313561759 0
2.999987468347592 0.002500088182621985 0
3.000417271160806 0.005829919385438368 0
3.000150706981106 0.00151960283158019 0
3.000643213451613 0.003274690624474179 0
3.000153514297769 0.0007666016943315827 0
3.000518348801272 0.001570560037906656 0
3.000091804803987 0.0003113950999820183 0
3.000267377405282 0.0005615759373129721 0
3.000030197147602 8.674609545112611e-05 0
3.000100984081584 0.0001568960817932872 0
2.999999997434394 1.116545214939742e-05 0
3.000019324049401 2.357021237917562e-05 0
2.999993258429863 -3.691842826299373e-06 0
2.99999463195447 -3.233226248718588e-06 0
2.999995716551001 -2.456360773559139e-06 0
2.99999457925533 -2.367347439406237e-06 0
2.999998669189795 -4.986578531568541e-07 0
2.999998206674392 -1.827940519406259e-07 0
3.000000018442709 4.974054279472282e-08 0
2.999999937493681 1.330598858312653e-07 0
3.000000191143247 2.071817076212456e-08 0
3.000000188019393 1.73064605494232e-09 0
3.000000033532825 -1.031380850111283e-08 0
3.000000036891413 -2.374264856759436e-08 0
2.999999981182353 2.362484749719215e-09 0
2.999999983333886 6.046702059797261e-09 0
3.000000001126018 6.055282009754892e-10 0
2.999999998630934 1.918645960869102e-09 0
3.000000001487518 -1.013782054331703e-09 0
3.000000001365261 -1.323130930633262e-09 0
2.999999999516937 3.433337448799215e-10 0
2.999999999748737 2.802084380263701e-10 0
3.000000000034416 -2.884750741054747e-11 0
2.999999999996861 -1.556881023324174e-11 0
3.000000000019071 -1.683406367064464e-11 0
3.000000000014542 -9.429436098700487e-12 0
2.999999999991457 9.002517486591325e-12 0
2.999999999996345 4.914191689731557e-12 0
3.000000000001667 -3.180974062980776e-12 0
2.999999999998251 -1.699882786329801e-12 0
3.00000000000268 1.343156834242462e-12 0
3.000000000002339 3.897443570720323e-13 0
2.999999999992401 -4.909572986513522e-13 0
3.00000000000158 1.44715151210309e-13 0
3.000000000011184 -6.557212430819607e-13 0
2.999999999990065 2.833215762979118e-14 0
2.999999999992203 1.65814147700468e-12 0
3.000000000018716 -1.063864951238397e-12 0
2.999999999992158 -1.308519834563584e-12 0
2.999999999985347 2.066730604964983e-12 0
3.000000000026588 -4.74999674385312e-13 0
2.999999999983536 -1.35281593088646e-12 0
2.999999999993081 1.750057913100695e-12 0
3.000000000037417 -8.020503363106784e-13 0
2.999999999930592 -6.771424962785467e-13 0
3.00000000006196 1.014173138219969e-12 0
3.000000000028052 -2.06610879133811e-12 0
2.99999999981125 1.861153584228648e-12 0
3.000000000316981 2.851243988178404e-12 0
2.999999999833361 -2.94153423817508e-12 0
2.999999999511974 2.126593771167921e-12 0
3.000000001121612 -7.963144938670768e-12 0
3.000000000069314 -5.754694428922117e-12 0
2.999999996216355 6.105590345397864e-11 0
2.999999997263927 6.928378932424013e-11 0
3.000000007364963 9.541865514983407e-11 0
3.000000049476564 -5.088697988313341e-10 0
3.000000098794578 -4.553555179828169e-09 0
3.088845375294337 -1.97724123665414e-05 0
2.999999979670565 -2.668699273362335e-09 0
2.968603022740913 0.01762132367726336 0
2.995754318636051 0.002933770614640928 0
2.995842185663265 0.00226961805570441 0
2.999759097671213 0.0002232384535474601 0
3.000000001076922 -5.777912722043761e-12 0
3.000000000037353 7.64066857898161e-13 0
3.000013539381923 0.0001232012149566491 0
2.999999999991595 -1.641669526650465e-12 0
3.000000000005754 -3.439419604347905e-12 0
3.000149838431744 -3.341112258964949e-05 0
3.00007873288064 -3.078107555641003e-05 0
3.000049755297463 -1.483375155736171e-05 0
2.999999999360931 2.776872705275217e-10 0
2.999997725940897 -1.954240909127093e-06 0
3.000000022468624 4.85778796119358e-10 0
2.999930038214696 0.000849961383483997 0
2.99999962536282 3.505230569955361e-06 0
3.000001567133612 -1.889321477925736e-06 0
2.999999528554262 -9.557224132702133e-09 0
3.000583739647899 0.0008736654070362536 0
3.000000095127904 7.192367173442357e-10 0
2.99999953174878 1.698199070236297e-08 0
2.999998032339175 2.765341859003861e-07 0
2.99999999168117 6.97424472912599e-09 0
2.999999999993658 -3.407732544830773e-11 0
2.999999999991968 3.921324345517334e-13 0
3.000012670263062 -7.536138419612474e-06 0
3.00001315732116 -8.502050568590135e-06 0
3.000000000021812 -1.409182174586177e-12 0
3.000000000299505 1.288043237390377e-12 0
3.000000051831585 -7.592756916828151e-10 0
2.977161425076685 0.06963467372513293 0
3.001585117126329 0.01099343496045727 0
3.000000003448772 6.492851699167167e-09 0
2.999998122189345 5.59834993885261e-08 0
3.000000805145163 -1.605407857478128e-06 0
3.000001279638064 -2.376216542411836e-06 0
3.000000264510019 -6.067803074781498e-07 0
3.00000094080207 -1.538523932402154e-06 0
3.000000007209684 -9.23411668046234e-08 0
3.000000130968761 -3.530975635641264e-07 0
2.999999955649801 4.607645338462551e-08 0
2.99999993089562 2.98505072793753e-08 0
2.999999988892005 2.14896174196962e-08 0
2.999999968093954 4.309547536046868e-08 0
3.000000002993612 -3.694447794021213e-10 0
2.999999999926449 6.393245662089115e-09 0
0.3002560420983714 0.3426862383150313 0
2.967529946667229 0.01411188795017298 0
3.000000001095246 -2.388422911089812e-09 0
3.000061192571065 -1.93648736767184e-05 0
3.000348259307937 7.598564968706489e-05 0
2.999999887992473 -4.260403808965897e-07 0
2.74650917807635 0.098798236600835 0
3.000000003124444 -3.107576395356537e-09 0
2.999999610522548 1.246033247017514e-08 0
3.000000100317348 -6.193353949318525e-10 0
2.999996082671297 6.905599087327719e-08 0
2.99999598901902 -4.133919078960642e-08 0
2.316070720059308 0.2153408785135469 0
3.000000031802674 -1.411545163879758e-07 0
2.999986593103711 6.506729625472589e-07 0
2.999999996669472 5.647409951241721e-10 0
2.999999993378113 1.060161934698419e-09 0
3.00021945294831 -4.976164838961548e-05 0
3.00003489382654 -9.888326674958571e-06 0
3.000000000005262 -5.129814771765583e-11 0
3.00000000043648 -2.976878648436317e-09 0
2.999999999980766 2.305015598642224e-12 0
3.000000000006442 -1.537037301866164e-12 0
3.000000000007479 -7.744187068967892e-12 0
3.000000001187073 3.329853140816925e-10 0
3.000000000036107 -2.502549415916561e-12 0
2.999999999995469 -1.495479761569952e-12 0
2.999999999978307 5.290973995643161e-12 0
2.999999984448842 -1.129059988934799e-08 0
3.000000000423997 1.01950396590407e-11 0
2.994840888892566 0.001674185977888123 0
3.00001354714767 -3.395039811425829e-06 0
3.000000191197292 2.947398126409714e-08 0
2.999999999986068 -9.819112200963329e-13 0
2.999999999989571 7.604742568251533e-12 0
3.00000000159948 5.650194817910049e-11 0
2.999999997427775 -2.349011012668453e-09 0
2.999999999873181 2.455646600512585e-10 0
2.999999999978874 -1.218263347713344e-11 0
2.999999999998585 -3.388733849656007e-14 0
3.000000000005322 -1.95357646406091e-13 0
2.999999999994455 -6.77306732885089e-12 0
2.999995689255254 3.248979554079554e-06 0
2.999999999993205 4.454224796015277e-13 0
2.999999999993782 1.262812986243626e-12 0
3.00000000106323 -1.156080613840887e-09 0
3.000000143627846 -2.947612956603938e-08 0
2.999999999797428 -4.237500004160109e-12 0
2.999999999927258 2.828408912034912e-13 0
3.000054044289546 2.841159435967636e-05 0
3.000000013976958 2.879913376511224e-09 0
2.999999924812137 -4.982837576167207e-08 0
3.000388745229321 -4.547939041598103e-05 0
2.871745814930253 0.002192918151254321 0
2.999999999806817 3.239833727305186e-11 0
2.999998531795505 3.9462836983782e-07 0
3.000000002818354 -3.122393999339947e-09 0
2.846590020100322 0.1906786402423564 0
2.99999956623173 2.255669285750871e-07 0
2.999999999269134 8.309028815589335e-10 0
2.999999992730797 1.438363266137673e-08 0
3.000000004649215 -2.713029544382776e-09 0
3.000007264457754 -2.503001323625496e-07 0
3.000000011291202 -7.829071654348312e-10 0
3.000000045662397 -1.450117533154781e-09 0
2.999999981037206 3.037293350502069e-08 0
3.000000000221644 -1.224834271155782e-09 0
3.000002211237542 -2.836225848126766e-06 0
3.000067754698601 -3.339685250003489e-06 0
2.999999999994573 5.65389232370372e-10 0
3.000020132540606 2.901390015300616e-06 0
3.000182566042366 -4.181419613206394e-05 0
3.000001917925216 -1.544308135041038e-06 0
2.999995335212232 9.341641419393999e-07 0
2.99999617403474 4.884746808918457e-08 0
3.000063839497592 8.113872105579298e-08 0
3.079447928414838 0.001235726799929497 0
3.063937223812918 -0.001153701699602345 0
3.000007643916089 -5.633767324463911e-06 0
3.000000000052949 -2.914747568300294e-10 0
2.987792989556351 0.05899272913476478 0
2.961222987694631 0.1199845882602038 0
2.982453428158419 0.09037681244333458 0
3.000009637408377 -6.60381119732714e-07 0
2.999908258238715 0.0002320331901417491 0
1.83058790623513 0.5065242630732544 0
3.000012890557108 2.674773902778362e-06 0
2.999999677205434 1.481835636902525e-07 0
3.000000021896097 5.227450385567391e-09 0
3.000000008412238 1.098899236695773e-08 0
2.99999586625768 8.643890346981581e-07 0
2.999999999842465 4.043422578812471e-11 0
2.943658148956997 0.1565692111251863 0
2.972532445304704 0.109626205834092 0
2.900434161941809 0.2077731295964581 0
3.000332333296702 -1.299570463566851e-05 0
3.000081931075094 3.073023416859295e-07 0
3.000000000098478 5.030853564086004e-12 0
3.00000000032997 -2.809716919360022e-10 0
3.000000087617724 -1.210311891554559e-09 0
3.000000004423951 -6.746884339741384e-10 0
2.999999996723599 1.986564628628944e-10 0
2.999999997180219 1.62835348675639e-10 0
3.000000000221176 -2.434064034169267e-11 0
3.00000000086281 -2.267102834066733e-11 0
2.999999999472243 6.287849884539236e-12 0
3.000000000011373 3.526253150465327e-12 0
3.000000000265223 9.541468682958972e-12 0
2.999999999789313 -1.617934320102646e-11 0
3.000000000068538 3.183445088622429e-12 0
3.000000000034283 -6.622728859313727e-12 0
2.999999999922232 -5.01263215126099e-13 0
3.000000000039356 1.675050965691794e-11 0
2.999999999998867 -7.576969005407326e-12 0
2.999999999993396 -3.958667765094667e-12 0
3.000000000012236 5.081230066938898e-12 0
2.999999999982924 -5.344736152586325e-12 0
3.000000000011111 5.26280330293587e-13 0
3.000000000011492 4.634805400213108e-12 0
2.999999999974819 -2.964625243209906e-12 0
3.000000000002389 -8.218482627474923e-13 0
3.000000000022758 2.877087959172886e-12 0
2.999999999989375 -1.695666791553737e-12 0
2.999999999987527 -1.847360127224265e-12 0
3.00000000001081 2.435544232377197e-12 0
3.000000000003024 6.200444471276248e-13 0
2.999999999993308 -2.019667775495186e-12 0
3.000000000002323 1.581324677572869e-13 0
3.000000000002883 1.09627337050925e-12 0
2.999999999995172 -1.804775659787879e-13 0
2.999999999998395 -2.832654718203995e-13 0
3.000000000005461 4.121343445566477e-13 0
3.000000000002462 1.29488437731323e-13 0
2.999999999998024 -2.169495476317762e-12 0
3.000000000000172 -1.286464877908885e-12 0
2.999999999981084 5.259534436780808e-12 0
2.999999999970324 4.159981135024975e-12 0
3.00000000012317 -1.101848200049464e-11 0
3.000000000094284 8.412565918512929e-12 0
2.999999999685701 -3.465410603000166e-11 0
2.999999999947306 -5.069151341334406e-11 0
3.000000000026948 1.785009616991854e-10 0
2.999999999566838 5.010537740128962e-11 0
3.000000001971661 1.374432359389809e-11 0
3.000000000891516 3.785059324654119e-10 0
2.999999998151134 -1.995641437825471e-09 0
3.000000001502837 -7.203498585527704e-10 0
2.999999988009838 -1.892887642630592e-09 0
2.999999995723107 -2.888461982791157e-09 0
2.999999995375968 1.162725131594383e-08 0
2.999999989590513 1.239027196019075e-09 0
3.000000040096869 4.126221720000745e-08 0
3.000000000161656 1.771269652910062e-08 0
3.000000106436277 4.062407361174039e-08 0
3.000000033238805 3.920135852393615e-08 0
3.000000117120307 -9.279627686108176e-08 0
3.000000079929847 3.312381783852715e-08 0
3.000000030057347 -4.413901715729411e-07 0
3.000000109372675 -4.621154647282814e-08 0
2.999999751912797 -1.086364963525068e-06 0
3.000000099355565 -2.531879121757195e-07 0
2.999999356337756 -1.911659322596023e-06 0
3.000000038677664 -6.62462708019212e-07 0
2.99999910079469 -2.52473796696929e-06 0
3.00000000833119 -1.162657823800301e-06 0
2.999999136172804 -2.532233429364954e-06 0
3.000000099575184 -1.444834344724535e-06 0
2.999999245726424 -2.058991145035802e-06 0
3.000000259471441 -1.462227807596656e-06 0
3.000000132944233 -3.478090245537677e-06 0
3.000000326206944 -1.141289984235793e-06 0
3.000007882893434 -4.157897718184998e-07 0
3.000288728715302 -3.456850717914489e-06 0
2.999999981875602 1.952832750521459e-08 0
3.000000006220366 -2.494658334264077e-09 0
3.000105339289156 -2.42437185668279e-05 0
3.000627239582863 -0.0001180210385360944 0
3.000942753980382 -2.368900243004185e-05 0
3.000000828510256 -3.337755405650016e-06 0
3.000000185351268 -5.141566181503217e-07 0
2.999996635954458 3.382179030147915e-06 0
2.999999426889898 1.881460218982872e-07 0
3.001163370104389 -5.718289658801356e-06 0
3.00031101289271 5.052680946514978e-06 0
3.003000331852819 2.899594291888863e-05 0
3.000966668773067 -3.259767257520806e-05 0
3.000069718962716 -1.891162839354728e-06 0
3.000309482980502 -2.251114430989956e-05 0
3.000008545113048 -1.197091089726175e-06 0
3.000086273330855 -4.706519684339394e-06 0
2.999995307296577 1.141774064081197e-07 0
3.000005602762951 1.066519332011389e-06 0
2.999994967581308 1.602658648867378e-08 0
3.000402488075913 2.513916635739916e-06 0
2.999997749772244 4.401968256410011e-08 0
2.999999504043828 -5.156523216854414e-08 0
3.00000471026101 -4.129824645543347e-06 0
3.000009567343088 -1.124318386799172e-06 0
3.000000011737777 -7.880802765944838e-09 0
3.000000082569113 -2.31710646158151e-07 0
3.000000168116063 -1.547932343246823e-08 0
3.00000000003554 6.442002062368743e-11 0
0.7890140981926758 0.0570218530901057 0
3.000000002604197 2.812721025802338e-09 0
3.000000102233879 8.026985658538298e-10 0
3.000000054008764 7.088565754062592e-10 0
3.00000000648968 1.376430950773845e-09 0