<?xml version="1.0"?>
<VTKFile type="UnstructuredGrid">
  <UnstructuredGrid>
  <Piece NumberOfPoints="1224"  NumberOfCells="2290">
    <Points>
      <DataArray type="Float64" NumberOfComponents="3" format="ascii">
0 0 0
0.6 0 0
0.6 0.2 0
75 0.2 0
75 1 0
0 1 0
0.05454545454535233 0 0
0.1090909090906768 0 0
0.1636363636359771 0 0
0.2181818181812728 0 0
0.2727272727265793 0 0
0.3272727272720317 0 0
0.3818181818176247 0 0
0.4363636363632168 0 0
0.4909090909088285 0 0
0.5454545454544089 0 0
0.6 0.03999999999991203 0
0.6 0.07999999999979179 0
0.6 0.1199999999997886 0
0.6 0.1599999999998948 0
7.214661735009749 0.2 0
9.293415508440654 0.2 0
11.04937674075943 0.2 0
12.6992699760106 0.2 0
14.28433397029356 0.2 0
15.82866532440367 0.2 0
17.34406396144076 0.2 0
18.83951569443474 0.2 0
20.32061392385865 0.2 0
21.79110349511441 0.2 0
23.25363600898544 0.2 0
24.71011675273001 0.2 0
26.16194013818274 0.2 0
27.61017310363671 0.2 0
29.0555925941136 0.2 0
30.49879021141993 0.2 0
31.94023215761663 0.2 0
33.38027960771586 0.2 0
34.81921542029769 0.2 0
36.25726173088182 0.2 0
37.69459474661603 0.2 0
39.1313541706179 0.2 0
40.56765163473197 0.2 0
42.00357625118673 0.2 0
43.43919962152831 0.2 0
44.87457919449831 0.2 0
46.30976131475393 0.2 0
47.74478330700421 0.2 0
49.17967536999825 0.2 0
50.61446190509497 0.2 0
52.04916270386184 0.2 0
53.48379380205792 0.2 0
54.9183682297493 0.2 0
56.35289656627749 0.2 0
57.78738739846141 0.2 0
59.22184771716105 0.2 0
60.65628340346117 0.2 0
62.0906991235385 0.2 0
63.52509855297133 0.2 0
64.95948498728566 0.2 0
66.39386099090302 0.2 0
67.82822869307218 0.2 0
69.26258992057302 0.2 0
70.69694644585071 0.2 0
72.13129949661389 0.2 0
73.5656503231473 0.2 0
75 0.2533333333332341 0
75 0.3066666666664725 0
75 0.3599999999996274 0
75 0.413333333332804 0
75 0.4666666666659806 0
75 0.5199999999991571 0
75 0.5733333333323336 0
75 0.6266666666656895 0
75 0.6799999999991551 0
75 0.7333333333326146 0
75 0.7866666666660802 0
75 0.8399999999995775 0
75 0.8933333333330373 0
75 0.9466666666664969 0
73.57178129956792 1 0
72.14356367886508 1 0
70.71534826370984 1 0
69.28713631096851 1 0
67.85892915161565 1 0
66.430728306715 1 0
65.00253569721026 1 0
63.57435322852653 1 0
62.14618389418462 1 0
60.71803044429819 1 0
59.2898967435013 1 0
57.86178766373481 1 0
56.4337084114503 1 0
55.00566639373636 1 0
53.57766943048719 1 0
52.14972867916407 1 0
50.72185583577363 1 0
49.29406822251024 1 0
47.86638247927159 1 0
46.43882516700973 1 0
45.01142217326429 1 0
43.58421247148223 1 0
42.15723947721896 1 0
40.73055648709665 1 0
39.30423099568135 1 0
37.87834612637943 1 0
36.45300344890624 1 0
35.02832966129053 1 0
33.60448411482117 1 0
32.18165030890961 1 0
30.76006057963046 1 0
29.34002866683258 1 0
27.92187605940688 1 0
26.50607442235976 1 0
25.09315333657423 1 0
23.68377270223007 1 0
22.27874368082134 1 0
20.87904033720591 1 0
19.48586353391087 1 0
18.10061530807279 1 0
16.72496295072146 1 0
15.360861732624 1 0
14.01025145097762 1 0
12.67506346629544 1 0
11.35718752131983 1 0
10.05939529609659 1 0
8.785590868165585 1 0
7.543904414319384 1 0
6.34863024818704 1 0
5.222294002167866 1 0
4.179781274486992 1 0
3.242138928150868 1 0
2.418336428905103 1 0
1.756950977094962 1 0
1.223665991331591 1 0
0.8091918826104391 1 0
0.4892685706885009 1 0
0.2266842201370498 1 0
0 0.9473684210524125 0
0 0.8947368421048248 0
0 0.8421052631576025 0
0 0.7894736842105994 0
0 0.7368421052635962 0
0 0.6842105263165927 0
0 0.6315789473695894 0
0 0.5789473684225861 0
0 0.5263157894755828 0
0 0.4736842105282874 0
0 0.4210526315806998 0
0 0.3684210526331123 0
0 0.3157894736855248 0
0 0.2631578947379374 0
0 0.21052631579035 0
0 0.1578947368427625 0
0 0.1052631578951749 0
0 0.05263157894758741 0
4.788927989261276 0.955462795473483 0
5.739296085293372 0.2394317949808221 0
13.36316259578609 0.9557759867023439 0
62.93794646866751 0.9559758769411787 0
57.14773187978314 0.9559648099769389 0
51.43575581737622 0.9559648099769389 0
45.72504165638549 0.9559648099772646 0
40.09068510888058 0.9560078743553572 0
34.38790021010276 0.9561420672712786 0
28.63001591135104 0.95627738856474 0
22.97923691004704 0.9563034567995272 0
0.1119866564474773 0.5498854761242812 0
18.09632379628479 0.2442383967812095 0
59.98292653263317 0.2421522008426663 0
54.20104336759186 0.243586373321511 0
48.46228589941128 0.24363095694403 0
42.72157968247166 0.2436741865527954 0
36.97629037322175 0.2437170671454607 0
31.22016509223442 0.2437587738062726 0
25.43723907133314 0.2442249255777628 0
2.925665169066954 0.2417757800606361 0
5.503296105484578 0.2785115072887754 0
73.6383326738752 0.5995349944823752 0
3.449438313114282 0.2791940688436214 0
5.303330382228548 0.3180386921514113 0
3.620278226588383 0.3181181454258206 0
5.086205147614636 0.3577335228902347 0
65.77280656949227 0.2416532643303031 0
3.625144007065999 0.3576683284772433 0
4.853314006545373 0.3976917483469583 0
6.273970311411025 0.3977458985417416 0
5.922939311961116 0.4382323507424581 0
7.302181828951078 0.4382172989803606 0
6.888401615450289 0.4790536480492864 0
8.226548510747305 0.4792447281197085 0
5.636472349991993 0.4817209888486334 0
2.048591958113526 0.9660670791366374 0
17.41145239754694 0.9559852449915113 0
7.767298961730387 0.5203953730037822 0
9.083222027176014 0.5205851219036783 0
67.25088640128885 0.9563165682871465 0
0.05499338042762734 0.2894490564426765 0
8.579985256684624 0.5622881188475496 0
9.888264116102635 0.5621981517123112 0
0.1426046219393075 0.7091098825652095 0
0.2760964621486703 0.04723774929726795 0
10.41469169171575 0.5200372393771872 0
11.20749538534175 0.562505099575485 0
9.362228214917819 0.6041261864689124 0
8.077851127858512 0.6041581669226386 0
73.71725623870215 0.4393531299125908 0
11.77563999239702 0.5199435586712576 0
12.55522610903301 0.5624873891767795 0
2.299501955041976 0.3174350849704655 0
2.443301750794145 0.3576870257641042 0
13.14751101655478 0.5195844107098163 0
13.92246181937282 0.5621174250913318 0
8.832609412807733 0.6460588488486728 0
7.579589793453748 0.6462390077748084 0
13.29178282610919 0.6067218912904607 0
14.68024173005638 0.6047738158182728 0
15.30259055781353 0.5617915498272615 0
16.05651263594338 0.6045430073239006 0
16.69575353303357 0.5614360364847856 0
17.44389380327906 0.6046345614192383 0
18.09300728882443 0.5613114208485291 0
18.83985189437764 0.604758732930365 0
19.4838234854225 0.5597386087889248 0
20.24483584864145 0.6042836632406788 0
20.92278223733482 0.5607219500906248 0
21.66007897190235 0.6043040651294929 0
22.34215671296056 0.5598592244124957 0
23.07675957500604 0.6040638744783449 0
23.76440049181254 0.5595216793632644 0
24.49639891092386 0.6038781229769293 0
25.18841802530968 0.5600604284234054 0
25.91818459656785 0.6038664424080111 0
26.60046695724423 0.55874807111347 0
27.3404404198276 0.6035341865995129 0
28.03231665501851 0.5586520846649797 0
28.76699329164067 0.6034054551655909 0
29.4680725914232 0.558835304845746 0
30.1948440045311 0.6032503772964327 0
30.89836647648934 0.5587079795953892 0
31.62316325527881 0.6030926920218221 0
32.32799897024923 0.5580480170404921 0
33.05191468203049 0.6028436706904448 0
33.75794948599032 0.5577680566445021 0
34.48114852677164 0.6026435181305781 0
35.18818844000081 0.5575726351194972 0
35.91084003818356 0.6024617369905624 0
36.61869050519901 0.5573842056888257 0
37.3409978434893 0.6022873884346892 0
38.04940808222857 0.5572075399874397 0
38.7713570290295 0.6021111834258887 0
39.4802800382367 0.5570246051384745 0
40.20189068522236 0.6019307913070558 0
40.91126260301169 0.5568475628142857 0
41.63262771275312 0.6017522495250318 0
42.34234697666051 0.5566653603575672 0
43.063573494183 0.601574020443024 0
43.77351797450663 0.5564884669211013 0
44.4945834861831 0.601395113412113 0
45.20474493098585 0.5563067813822595 0
45.92553836963025 0.6012129143420911 0
46.63599604077738 0.5561292537946573 0
47.35667704051376 0.601032757987411 0
48.06730192379629 0.5559477304122714 0
48.78803988275732 0.600855564813206 0
49.49866707092887 0.5557710179709322 0
50.21933655944026 0.6006760179252703 0
50.93004186804945 0.5555900146741853 0
51.65059372728382 0.6004921726308964 0
52.36142005545717 0.5554125217101814 0
53.08191997135985 0.6003111949874665 0
53.79281723909125 0.5552312296013228 0
54.5131887622999 0.6001298880828497 0
55.22422099893343 0.5550546947866846 0
55.94458062795854 0.599950595338254 0
56.65570972212119 0.5548708301001631 0
57.37617387025768 0.5997713467128002 0
58.08747590811335 0.5547000681173012 0
58.80810459106854 0.5996004731097838 0
59.51971672443603 0.5545095609010697 0
60.2403937343983 0.5994220729206983 0
60.95277863505083 0.5543494429014709 0
61.67315087378863 0.5993228147833797 0
62.38731061821949 0.5541346321759457 0
63.10958809398499 0.5992395038842441 0
63.82571929219947 0.5540180644105763 0
73.84681226283494 0.7598964409357507 0
64.55135858097549 0.5990918128353608 0
1.484016423404076 0.3159793431387367 0
1.644354814474064 0.357715436029677 0
0.9861767113280044 0.3157219358498637 0
1.107942006107302 0.3576135465858128 0
59.52440341424386 0.643990885448769 0
53.8021387767475 0.6444881680698032 0
19.57202042948486 0.6487487015028032 0
48.07734583604046 0.6452136474256573 0
42.35365789277363 0.6459229900926835 0
0.6718734451097802 0.3150377509381005 0
0.7577208715965923 0.3574251905568473 0
1.174532432491317 0.4002519798591844 0
36.63282113218695 0.6466170330762969 0
25.22655324144397 0.6479317947648683 0
30.92031025659965 0.6473399689389928 0
15.43027363830328 0.6483605753517908 0
8.311631825362424 0.6883083412871458 0
7.08591244580706 0.6885103796531055 0
65.26839269840869 0.5527758280498023 0
21.5791996852157 0.5148848291986879 0
63.83269445187958 0.6438096025956825 0
65.27714000119416 0.6437140715169269 0
28.72695519044617 0.5138574114565649 0
34.45439922627509 0.5115839513085039 0
40.1811375451078 0.5109012431757174 0
45.90820774887312 0.510388685431229 0
0.8050466939527223 0.4001745965167012 0
1.192397073451849 0.4433206937839571 0
51.63541834087842 0.5096846626216972 0
[...]
    <PointData>
      <DataArray type="Float64" NumberOfComponents="3" Name="Velocity" format="ascii">
-nan -nan 0
-nan -nan 0
-nan -nan 0
-nan -nan 0
-nan -nan 0
-nan -nan 0
-nan -nan 0
-nan -nan 0
-nan -nan 0
-nan -nan 0
-nan -nan 0
-nan -nan 0
-nan -nan 0
-nan -nan 0
-nan -nan 0
-nan -nan 0
-nan -nan 0
-nan -nan 0
-nan -nan 0
-nan -nan 0
-nan -nan 0
-nan -nan 0
-nan -nan 0
-nan -nan 0
-nan -nan 0
-nan -nan 0
-nan -nan 0
-nan -nan 0
-nan -nan 0
-nan -nan 0
-nan -nan 0
-nan -nan 0
-nan -nan 0
-nan -nan 0
-nan -nan 0
-nan -nan 0
-nan -nan 0
-nan -nan 0
-nan -nan 0
-nan -nan 0
-nan -nan 0
-nan -nan 0
-nan -nan 0
-nan -nan 0
-nan -nan 0
-nan -nan 0
-nan -nan 0
-nan -nan 0
-nan -nan 0
-nan -nan 0
-nan -nan 0
-nan -nan 0
-nan -nan 0
-nan -nan 0
-nan -nan 0
-nan -nan 0
-nan -nan 0
-nan -nan 0
-nan -nan 0
-nan -nan 0
-nan -nan 0
-nan -nan 0
-nan -nan 0
-nan -nan 0
-nan -nan 0
-nan -nan 0
-nan -nan 0
-nan -nan 0
-nan -nan 0
-nan -nan 0
-nan -nan 0
-nan -nan 0
-nan -nan 0
-nan -nan 0
-nan -nan 0
-nan -nan 0
-nan -nan 0
-nan -nan 0
-nan -nan 0
-nan -nan 0
-nan -nan 0
-nan -nan 0
-nan -nan 0
-nan -nan 0
-nan -nan 0
-nan -nan 0
-nan -nan 0
-nan -nan 0
-nan -nan 0
-nan -nan 0
-nan -nan 0
-nan -nan 0
-nan -nan 0
-nan -nan 0
-nan -nan 0
-nan -nan 0
-nan -nan 0
-nan -nan 0
-nan -nan 0
-nan -nan 0
-nan -nan 0
-nan -nan 0
-nan -nan 0
-nan -nan 0
-nan -nan 0
-nan -nan 0
-nan -nan 0
-nan -nan 0
-nan -nan 0
-nan -nan 0
-nan -nan 0
-nan -nan 0
-nan -nan 0
-nan -nan 0
-nan -nan 0
-nan -nan 0
-nan -nan 0
-nan -nan 0
-nan -nan 0
-nan -nan 0
-nan -nan 0
-nan -nan 0
-nan -nan 0
-nan -nan 0
-nan -nan 0
-nan -nan 0
-nan -nan 0
-nan -nan 0
-nan -nan 0
-nan -nan 0
-nan -nan 0
-nan -nan 0
-nan -nan 0
-nan -nan 0
-nan -nan 0
-nan -nan 0
-nan -nan 0
-nan -nan 0
-nan -nan 0
-nan -nan 0
-nan -nan 0
-nan -nan 0
-nan -nan 0
-nan -nan 0
-nan -nan 0
-nan -nan 0
-nan -nan 0
-nan -nan 0
-nan -nan 0
-nan -nan 0
-nan -nan 0
-nan -nan 0
-nan -nan 0
-nan -nan 0
-nan -nan 0
-nan -nan 0
-nan -nan 0
-nan -nan 0
-nan -nan 0
-nan -nan 0
-nan -nan 0
-nan -nan 0
-nan -nan 0
-nan -nan 0
-nan -nan 0
-nan -nan 0
-nan -nan 0
-nan -nan 0
-nan -nan 0
-nan -nan 0
-nan -nan 0
-nan -nan 0
-nan -nan 0
-nan -nan 0
-nan -nan 0
-nan -nan 0
-nan -nan 0
-nan -nan 0
-nan -nan 0
-nan -nan 0
-nan -nan 0
-nan -nan 0
-nan -nan 0
-nan -nan 0
-nan -nan 0
-nan -nan 0
-nan -nan 0
-nan -nan 0
-nan -nan 0
-nan -nan 0
-nan -nan 0
-nan -nan 0
-nan -nan 0
-nan -nan 0
-nan -nan 0
-nan -nan 0
-nan -nan 0
-nan -nan 0
-nan -nan 0
-nan -nan 0
-nan -nan 0
-nan -nan 0
-nan -nan 0
-nan -nan 0
-nan -nan 0
-nan -nan 0
-nan -nan 0
-nan -nan 0
-nan -nan 0
-nan -nan 0
-nan -nan 0
-nan -nan 0
-nan -nan 0
-nan -nan 0
-nan -nan 0
-nan -nan 0
-nan -nan 0
-nan -nan 0
-nan -nan 0
-nan -nan 0
-nan -nan 0
-nan -nan 0
-nan -nan 0
-nan -nan 0
-nan -nan 0
-nan -nan 0
-nan -nan 0
-nan -nan 0
-nan -nan 0
-nan -nan 0
-nan -nan 0
-nan -nan 0
-nan -nan 0
-nan -nan 0
-nan -nan 0
-nan -nan 0
-nan -nan 0
-nan -nan 0
-nan -nan 0
-nan -nan 0
-nan -nan 0
-nan -nan 0
-nan -nan 0
-nan -nan 0
-nan -nan 0
-nan -nan 0
-nan -nan 0
-nan -nan 0
-nan -nan 0
-nan -nan 0
-nan -nan 0
-nan -nan 0
-nan -nan 0
-nan -nan 0
-nan -nan 0
-nan -nan 0
-nan -nan 0
-nan -nan 0
-nan -nan 0
-nan -nan 0
-nan -nan 0
-nan -nan 0
-nan -nan 0
-nan -nan 0
-nan -nan 0
-nan -nan 0
-nan -nan 0
-nan -nan 0
-nan -nan 0
-nan -nan 0
-nan -nan 0
-nan -nan 0
-nan -nan 0
-nan -nan 0
-nan -nan 0
-nan -nan 0
-nan -nan 0
-nan -nan 0
-nan -nan 0
-nan -nan 0
-nan -nan 0
-nan -nan 0
-nan -nan 0
-nan -nan 0
-nan -nan 0
-nan -nan 0
-nan -nan 0
-nan -nan 0
-nan -nan 0
-nan -nan 0
-nan -nan 0
-nan -nan 0
-nan -nan 0
-nan -nan 0
-nan -nan 0
-nan -nan 0
-nan -nan 0
-nan -nan 0
-nan -nan 0
-nan -nan 0
-nan -nan 0
-nan -nan 0
-nan -nan 0
-nan -nan 0
-nan -nan 0
-nan -nan 0
-nan -nan 0
-nan -nan 0
-nan -nan 0
-nan -nan 0
-nan -nan 0
-nan -nan 0
-nan -nan 0
-nan -nan 0
-nan -nan 0
-nan -nan 0
-nan -nan 0
-nan -nan 0
-nan -nan 0
-nan -nan 0
-nan -nan 0
-nan -nan 0
-nan -nan 0
-nan -nan 0
-nan -nan 0
-nan -nan 0
-nan -nan 0
-nan -nan 0
-nan -nan 0
-nan -nan 0
-nan -nan 0
-nan -nan 0
-nan -nan 0
-nan -nan 0
-nan -nan 0
-nan -nan 0
-nan -nan 0
-nan -nan 0
-nan -nan 0
-nan -nan 0
-nan -nan 0
-nan -nan 0
-nan -nan 0
-nan -nan 0
-nan -nan 0
-nan -nan 0
-nan -nan 0
-nan -nan 0
-nan -nan 0
-nan -nan 0
-nan -nan 0
-nan -nan 0
-nan -nan 0
-nan -nan 0
-nan -nan 0
-nan -nan 0
-nan -nan 0
-nan -nan 0
-nan -nan 0
-nan -nan 0
-nan -nan 0
-nan -nan 0
-nan -nan 0
-nan -nan 0
-nan -nan 0
-nan -nan 0
-nan -nan 0
-nan -nan 0
-nan -nan 0
-nan -nan 0
-nan -nan 0
-nan -nan 0
-nan -nan 0
-nan -nan 0
-nan -nan 0
-nan -nan 0
-nan -nan 0
-nan -nan 0
-nan -nan 0
-nan -nan 0
-nan -nan 0
-nan -nan 0
-nan -nan 0
-nan -nan 0
-nan -nan 0
-nan -nan 0
-nan -nan 0
-nan -nan 0
-nan -nan 0
-nan -nan 0
-nan -nan 0
-nan -nan 0
-nan -nan 0
-nan -nan 0
-nan -nan 0
-nan -nan 0
-nan -nan 0
-nan -nan 0
-nan -nan 0
-nan -nan 0
-nan -nan 0
-nan -nan 0
-nan -nan 0
-nan -nan 0
-nan -nan 0
-nan -nan 0
-nan -nan 0
-nan -nan 0
-nan -nan 0
-nan -nan 0
-nan -nan 0
-nan -nan 0
-nan -nan 0
-nan -nan 0
-nan -nan 0
-nan -nan 0
-nan -nan 0
-nan -nan 0
-nan -nan 0
-nan -nan 0
-nan -nan 0
-nan -nan 0
-nan -nan 0
-nan -nan 0
-nan -nan 0
-nan -nan 0
-nan -nan 0
-nan -nan 0
-nan -nan 0
-nan -nan 0
-nan -nan 0
-nan -nan 0
-nan -nan 0
-nan -nan 0
-nan -nan 0
-nan -nan 0
-nan -nan 0
-nan -nan 0
-nan -nan 0
-nan -nan 0
-nan -nan 0
-nan -nan 0
-nan -nan 0
-nan -nan 0
-nan -nan 0
-nan -nan 0
-nan -nan 0
-nan -nan 0
-nan -nan 0
-nan -nan 0
-nan -nan 0
-nan -nan 0
-nan -nan 0
-nan -nan 0
-nan -nan 0
-nan -nan 0
-nan -nan 0
-nan -nan 0
-nan -nan 0
-nan -nan 0
-nan -nan 0
-nan -nan 0
-nan -nan 0
-nan -nan 0
-nan -nan 0
-nan -nan 0
-nan -nan 0
-nan -nan 0
-nan -nan 0
-nan -nan 0
-nan -nan 0
-nan -nan 0
-nan -nan 0
-nan -nan 0
-nan -nan 0
-nan -nan 0
-nan -nan 0
-nan -nan 0
-nan -nan 0
-nan -nan 0
-nan -nan 0
-nan -nan 0
-nan -nan 0
-nan -nan 0
-nan -nan 0
-nan -nan 0
-nan -nan 0
-nan -nan 0
-nan -nan 0
-nan -nan 0
-nan -nan 0
-nan -nan 0
-nan -nan 0
-nan -nan 0
-nan -nan 0
-nan -nan 0
-nan -nan 0
-nan -nan 0
-nan -nan 0
-nan -nan 0
-nan -nan 0
-nan -nan 0
-nan -nan 0
-nan -nan 0
-nan -nan 0
-nan -nan 0
-nan -nan 0
-nan -nan 0
-nan -nan 0
-nan -nan 0
-nan -nan 0
-nan -nan 0
-nan -nan 0
-nan -nan 0
-nan -nan 0
-nan -nan 0
-nan -nan 0
-nan -nan 0
-nan -nan 0
-nan -nan 0
-nan -nan 0
-nan -nan 0
-nan -nan 0
-nan -nan 0
-nan -nan 0
-nan -nan 0
-nan -nan 0
-nan -nan 0
-nan -nan 0
-nan -nan 0
-nan -nan 0
-nan -nan 0
-nan -nan 0
-nan -nan 0
-nan -nan 0
-nan -nan 0
-nan -nan 0
-nan -nan 0
-nan -nan 0
-nan -nan 0
-nan -nan 0
-nan -nan 0
-nan -nan 0
-nan -nan 0
-nan -nan 0
-nan -nan 0
-nan -nan 0
-nan -nan 0
-nan -nan 0
-nan -nan 0
-nan -nan 0
-nan -nan 0
-nan -nan 0
-nan -nan 0
-nan -nan 0
-nan -nan 0
-nan -nan 0
-nan -nan 0
-nan -nan 0
-nan -nan 0
-nan -nan 0
-nan -nan 0
-nan -nan 0
-nan -nan 0
-nan -nan 0
-nan -nan 0
-nan -nan 0
-nan -nan 0
-nan -nan 0
-nan -nan 0
-nan -nan 0
-nan -nan 0
-nan -nan 0
-nan -nan 0
-nan -nan 0
-nan -nan 0
-nan -nan 0
-nan -nan 0
-nan -nan 0
-nan -nan 0
-nan -nan 0
-nan -nan 0
-nan -nan 0
-nan -nan 0
-nan -nan 0
-nan -nan 0
-nan -nan 0
-nan -nan 0
-nan -nan 0
-nan -nan 0
-nan -nan 0
-nan -nan 0
-nan -nan 0
-nan -nan 0
-nan -nan 0
-nan -nan 0
-nan -nan 0
-nan -nan 0
-nan -nan 0
-nan -nan 0
-nan -nan 0
-nan -nan 0
-nan -nan 0
-nan -nan 0
-nan -nan 0
-nan -nan 0
-nan -nan 0
-nan -nan 0
-nan -nan 0
-nan -nan 0
-nan -nan 0
-nan -nan 0
-nan -nan 0
-nan -nan 0
-nan -nan 0
-nan -nan 0
-nan -nan 0
-nan -nan 0
-nan -nan 0
-nan -nan 0
-nan -nan 0
-nan -nan 0
-nan -nan 0
-nan -nan 0
-nan -nan 0
-nan -nan 0
-nan -nan 0
-nan -nan 0
-nan -nan 0
-nan -nan 0
-nan -nan 0
-nan -nan 0
-nan -nan 0
-nan -nan 0
-nan -nan 0
-nan -nan 0
-nan -nan 0
-nan -nan 0
-nan -nan 0
-nan -nan 0
-nan -nan 0
-nan -nan 0
-nan -nan 0
-nan -nan 0
-nan -nan 0
-nan -nan 0
-nan -nan 0
-nan -nan 0
-nan -nan 0
-nan -nan 0
-nan -nan 0
-nan -nan 0
-nan -nan 0
-nan -nan 0
-nan -nan 0
-nan -nan 0
-nan -nan 0
-nan -nan 0
-nan -nan 0
-nan -nan 0
-nan -nan 0
-nan -nan 0
-nan -nan 0
-nan -nan 0
-nan -nan 0
-nan -nan 0
-nan -nan 0
-nan -nan 0
-nan -nan 0
-nan -nan 0
-nan -nan 0
-nan -nan 0
-nan -nan 0
-nan -nan 0
-nan -nan 0
-nan -nan 0
-nan -nan 0
-nan -nan 0
-nan -nan 0
-nan -nan 0
-nan -nan 0
-nan -nan 0
-nan -nan 0
-nan -nan 0
-nan -nan 0
-nan -nan 0
-nan -nan 0
-nan -nan 0
-nan -nan 0
-nan -nan 0
-nan -nan 0
-nan -nan 0
-nan -nan 0
-nan -nan 0
-nan -nan 0
-nan -nan 0
-nan -nan 0
-nan -nan 0
-nan -nan 0
-nan -nan 0
-nan -nan 0
-nan -nan 0
-nan -nan 0
-nan -nan 0
-nan -nan 0
-nan -nan 0
-nan -nan 0
-nan -nan 0
-nan -nan 0
-nan -nan 0
-nan -nan 0
-nan -nan 0
-nan -nan 0
-nan -nan 0
-nan -nan 0
-nan -nan 0
-nan -nan 0
-nan -nan 0
-nan -nan 0
-nan -nan 0
-nan -nan 0
-nan -nan 0
-nan -nan 0
-nan -nan 0
-nan -nan 0
-nan -nan 0
-nan -nan 0
-nan -nan 0
-nan -nan 0
-nan -nan 0
-nan -nan 0
-nan -nan 0
-nan -nan 0
-nan -nan 0
-nan -nan 0
-nan -nan 0
-nan -nan 0
-nan -nan 0
-nan -nan 0
-nan -nan 0
-nan -nan 0
-nan -nan 0
-nan -nan 0
-nan -nan 0
-nan -nan 0
-nan -nan 0
-nan -nan 0
-nan -nan 0
-nan -nan 0
-nan -nan 0
-nan -nan 0
-nan -nan 0
-nan -nan 0
-nan -nan 0
-nan -nan 0
-nan -nan 0
-nan -nan 0
-nan -nan 0
-nan -nan 0
-nan -nan 0
-nan -nan 0
-nan -nan 0
-nan -nan 0
-nan -nan 0
-nan -nan 0
-nan -nan 0
-nan -nan 0
-nan -nan 0
-nan -nan 0
-nan -nan 0
-nan -nan 0
-nan -nan 0
-nan -nan 0
-nan -nan 0
-nan -nan 0
-nan -nan 0
-nan -nan 0
-nan -nan 0
-nan -nan 0
-nan -nan 0
-nan -nan 0
-nan -nan 0
-nan -nan 0
-nan -nan 0
-nan -nan 0
-nan -nan 0
-nan -nan 0
-nan -nan 0
-nan -nan 0
-nan -nan 0
-nan -nan 0
-nan -nan 0
-nan -nan 0
-nan -nan 0
-nan -nan 0
-nan -nan 0
-nan -nan 0
-nan -nan 0
-nan -nan 0
-nan -nan 0
-nan -nan 0
-nan -nan 0
-nan -nan 0
-nan -nan 0
-nan -nan 0
-nan -nan 0
-nan -nan 0
-nan -nan 0
-nan -nan 0
-nan -nan 0
-nan -nan 0
-nan -nan 0
-nan -nan 0
-nan -nan 0
-nan -nan 0
-nan -nan 0
-nan -nan 0
-nan -nan 0
-nan -nan 0
-nan -nan 0
-nan -nan 0
-nan -nan 0
-nan -nan 0
-nan -nan 0
-nan -nan 0
-nan -nan 0
-nan -nan 0
-nan -nan 0
-nan -nan 0
-nan -nan 0
-nan -nan 0
-nan -nan 0
-nan -nan 0
-nan -nan 0
-nan -nan 0
-nan -nan 0
-nan -nan 0
-nan -nan 0
-nan -nan 0
-nan -nan 0
-nan -nan 0
-nan -nan 0
-nan -nan 0
-nan -nan 0
-nan -nan 0
-nan -nan 0
-nan -nan 0
-nan -nan 0
-nan -nan 0
-nan -nan 0
-nan -nan 0
-nan -nan 0
-nan -nan 0
-nan -nan 0
-nan -nan 0
-nan -nan 0
-nan -nan 0
-nan -nan 0
-nan -nan 0
-nan -nan 0
-nan -nan 0
-nan -nan 0
-nan -nan 0
-nan -nan 0
-nan -nan 0
-nan -nan 0
-nan -nan 0
-nan -nan 0
-nan -nan 0
-nan -nan 0
-nan -nan 0
-nan -nan 0
-nan -nan 0
-nan -nan 0
-nan -nan 0
-nan -nan 0
-nan -nan 0
-nan -nan 0
-nan -nan 0
-nan -nan 0
-nan -nan 0
-nan -nan 0
-nan -nan 0
-nan -nan 0
-nan -nan 0
-nan -nan 0
-nan -nan 0
-nan -nan 0
-nan -nan 0
-nan -nan 0
-nan -nan 0
-nan -nan 0
-nan -nan 0
-nan -nan 0
-nan -nan 0
-nan -nan 0
-nan -nan 0
-nan -nan 0
-nan -nan 0
-nan -nan 0
-nan -nan 0
-nan -nan 0
-nan -nan 0
-nan -nan 0
-nan -nan 0
-nan -nan 0
-nan -nan 0
-nan -nan 0
-nan -nan 0
-nan -nan 0
-nan -nan 0
-nan -nan 0
-nan -nan 0
-nan -nan 0
-nan -nan 0
-nan -nan 0
-nan -nan 0
-nan -nan 0
-nan -nan 0
-nan -nan 0
-nan -nan 0
-nan -nan 0
-nan -nan 0
-nan -nan 0
-nan -nan 0
-nan -nan 0
-nan -nan 0
-nan -nan 0
-nan -nan 0
-nan -nan 0
-nan -nan 0
-nan -nan 0
-nan -nan 0
-nan -nan 0
-nan -nan 0
-nan -nan 0
-nan -nan 0
-nan -nan 0
-nan -nan 0
-nan -nan 0
-nan -nan 0
-nan -nan 0
-nan -nan 0
-nan -nan 0
-nan -nan 0
-nan -nan 0
-nan -nan 0
-nan -nan 0
-nan -nan 0
-nan -nan 0
-nan -nan 0
-nan -nan 0
-nan -nan 0
-nan -nan 0
-nan -nan 0
-nan -nan 0
-nan -nan 0
-nan -nan 0
-nan -nan 0
-nan -nan 0
-nan -nan 0
-nan -nan 0
-nan -nan 0
-nan -nan 0
-nan -nan 0
-nan -nan 0
-nan -nan 0
-nan -nan 0
-nan -nan 0
-nan -nan 0
-nan -nan 0
-nan -nan 0
-nan -nan 0
-nan -nan 0
-nan -nan 0
-nan -nan 0
-nan -nan 0
-nan -nan 0
-nan -nan 0
-nan -nan 0
-nan -nan 0
-nan -nan 0
-nan -nan 0
-nan -nan 0
-nan -nan 0
-nan -nan 0
-nan -nan 0
-nan -nan 0
-nan -nan 0
-nan -nan 0
-nan -nan 0
-nan -nan 0
-nan -nan 0
-nan -nan 0
-nan -nan 0
-nan -nan 0
-nan -nan 0
-nan -nan 0
-nan -nan 0
-nan -nan 0
-nan -nan 0
-nan -nan 0
-nan -nan 0
-nan -nan 0
-nan -nan 0
-nan -nan 0
-nan -nan 0
-nan -nan 0
-nan -nan 0
-nan -nan 0
-nan -nan 0
-nan -nan 0
-nan -nan 0
-nan -nan 0
-nan -nan 0
-nan -nan 0
-nan -nan 0
-nan -nan 0
-nan -nan 0
-nan -nan 0
-nan -nan 0
-nan -nan 0
-nan -nan 0
-nan -nan 0
-nan -nan 0
-nan -nan 0
-nan -nan 0
-nan -nan 0
-nan -nan 0
-nan -nan 0
-nan -nan 0
-nan -nan 0
-nan -nan 0
-nan -nan 0
-nan -nan 0
-nan -nan 0
-nan -nan 0
-nan -nan 0
-nan -nan 0
-nan -nan 0
-nan -nan 0
-nan -nan 0
-nan -nan 0
-nan -nan 0
-nan -nan 0
-nan -nan 0
-nan -nan 0
-nan -nan 0
-nan -nan 0
-nan -nan 0
-nan -nan 0
-nan -nan 0
-nan -nan 0
-nan -nan 0
-nan -nan 0
-nan -nan 0
-nan -nan 0
-nan -nan 0
-nan -nan 0
-nan -nan 0
-nan -nan 0
-nan -nan 0
-nan -nan 0
-nan -nan 0
-nan -nan 0
-nan -nan 0
-nan -nan 0
-nan -nan 0
-nan -nan 0
-nan -nan 0
-nan -nan 0
-nan -nan 0
-nan -nan 0
-nan -nan 0
-nan -nan 0
-nan -nan 0
-nan -nan 0
-nan -nan 0
-nan -nan 0
-nan -nan 0
-nan -nan 0
-nan -nan 0
-nan -nan 0
-nan -nan 0
-nan -nan 0
-nan -nan 0
-nan -nan 0
-nan -nan 0
-nan -nan 0
-nan -nan 0
-nan -nan 0
-nan -nan 0
-nan -nan 0
-nan -nan 0
-nan -nan 0
-nan -nan 0
-nan -nan 0
-nan -nan 0
-nan -nan 0
-nan -nan 0
-nan -nan 0
-nan -nan 0
-nan -nan 0
-nan -nan 0
-nan -nan 0
-nan -nan 0
-nan -nan 0
-nan -nan 0
-nan -nan 0
-nan -nan 0
-nan -nan 0
-nan -nan 0
-nan -nan 0
-nan -nan 0
-nan -nan 0
-nan -nan 0
-nan -nan 0
-nan -nan 0
-nan -nan 0
-nan -nan 0
-nan -nan 0
-nan -nan 0
-nan -nan 0
-nan -nan 0
-nan -nan 0
-nan -nan 0
-nan -nan 0
-nan -nan 0
-nan -nan 0
-nan -nan 0
-nan -nan 0
-nan -nan 0
-nan -nan 0
-nan -nan 0
-nan -nan 0
-nan -nan 0
-nan -nan 0
-nan -nan 0
-nan -nan 0
-nan -nan 0
-nan -nan 0
-nan -nan 0
-nan -nan 0
-nan -nan 0
-nan -nan 0
-nan -nan 0
-nan -nan 0
-nan -nan 0
-nan -nan 0
-nan -nan 0
-nan -nan 0
-nan -nan 0
-nan -nan 0
-nan -nan 0
-nan -nan 0
-nan -nan 0
-nan -nan 0
-nan -nan 0
-nan -nan 0
-nan -nan 0
-nan -nan 0
-nan -nan 0
-nan -nan 0
-nan -nan 0
-nan -nan 0
-nan -nan 0
-nan -nan 0
-nan -nan 0
-nan -nan 0
-nan -nan 0
-nan -nan 0
-nan -nan 0
-nan -nan 0
-nan -nan 0
-nan -nan 0
-nan -nan 0
-nan -nan 0
-nan -nan 0
-nan -nan 0
-nan -nan 0
-nan -nan 0
-nan -nan 0
-nan -nan 0
-nan -nan 0
-nan -nan 0
-nan -nan 0
-nan -nan 0
-nan -nan 0
-nan -nan 0
-nan -nan 0
-nan -nan 0
-nan -nan 0
-nan -nan 0
-nan -nan 0
-nan -nan 0
-nan -nan 0
-nan -nan 0
-nan -nan 0
-nan -nan 0
-nan -nan 0
-nan -nan 0
-nan -nan 0
-nan -nan 0
-nan -nan 0
-nan -nan 0
-nan -nan 0
-nan -nan 0
-nan -nan 0
-nan -nan 0
-nan -nan 0
-nan -nan 0
-nan -nan 0
-nan -nan 0
-nan -nan 0
-nan -nan 0
-nan -nan 0
-nan -nan 0
-nan -nan 0
-nan -nan 0
-nan -nan 0
-nan -nan 0
-nan -nan 0
-nan -nan 0
-nan -nan 0
      </DataArray> 
      <DataArray type="Float64" NumberOfComponents="3" Name="MeshDisp" format="ascii">
0 0 0
0 0 0
0 0 0
0.9999999999999999 0 0
1 0 0
0 0 0
0 0 0
0 0 0
0 0 0
0 0 0
0 0 0
0 0 0
0 0 0
0 0 0
0 0 0
0 0 0
0 0 0
0 0 0
0 0 0
0 0 0
0.08627359097815648 0 0
0.1136596475357746 0 0
0.1369668232803372 0 0
0.1589445728864543 0 0
0.1801366190979629 0 0
0.2008523005332087 0 0
0.2212151144963438 0 0
0.2413354936129977 0 0
0.261282705582299 0 0
0.2811031580345074 0 0
0.3008284475065174 0 0
0.3204810273818337 0 0
0.3400779731266034 0 0
0.3596316542423029 0 0
0.3791512913386981 0 0
0.3986440821158143 0 0
0.4181155550931471 0 0
0.437570056925711 0 0
0.4570109714575774 0 0
0.4764409868959448 0 0
0.4958622258211477 0 0
0.5152763883315084 0 0
0.5346848259827515 0 0
0.5540886298831034 0 0
0.5734886739801602 0 0
0.5928856668989535 0 0
0.6122801787340126 0 0
0.6316726729577751 0 0
0.6510635235966574 0 0
0.6704530357032865 0 0
0.6898414564682663 0 0
0.7092289880031271 0 0
0.7286157943461117 0 0
0.7480020096412552 0 0
0.7673877426784668 0 0
0.7867730826709389 0 0
0.8061581040812027 0 0
0.8255428667100788 0 0
0.8449274180386858 0 0
0.864311800398341 0 0
0.8836960468527796 0 0
0.9030801850492639 0 0
0.9224642387821276 0 0
0.9418482307349378 0 0
0.9612321774925638 0 0
0.9806160957877116 0 0
1 0 0
1 0 0
0.9999999999999999 0 0
1 0 0
1 0 0
1 0 0
1 0 0
0.9999999999999999 0 0
1 0 0
1 0 0
1 0 0
1 0 0
0.9999999999999999 0 0
1 0 0
0.9806989502612651 0 0
0.9613979166056038 0 0
0.9420969142033812 0 0
0.9227959602535636 0 0
0.9034950731561857 0 0
0.8841942742026659 0 0
0.8648935904937721 0 0
0.8455930484661386 0 0
0.8262926908665277 0 0
0.8069925562521945 0 0
0.7876926993575689 0 0
0.7683931899761862 0 0
0.7490941016743258 0 0
0.729795541251459 0 0
0.7104976195797206 0 0
0.6912004985853459 0 0
0.6719043453934712 0 0
0.6526094126182717 0 0
0.6333159358363769 0 0
0.6140243092789297 0 0
0.5947349023375105 0 0
0.5754482942748348 0 0
0.5561651192155691 0 0
0.5368861622215811 0 0
0.5176124195787642 0 0
0.4983451302933706 0 0
0.4790858004062515 0 0
0.4598363333654645 0 0
0.4405991264654269 0 0
0.4213769366357963 0 0
0.4021732797897091 0 0
0.3829929134568812 0 0
0.3638406859081865 0 0
0.3447240010279415 0 0
0.3256510143996237 0 0
0.3066319791862842 0 0
0.2876795227186538 0 0
0.2688085948995598 0 0
0.2500380266884533 0 0
0.2313900292654069 0 0
0.2128919505785834 0 0
0.1945778395054965 0 0
0.1764813428689234 0 0
0.1586368177107143 0 0
0.1410791024527906 0 0
0.1238534559120584 0 0
0.107009382905076 0 0
0.09065581509981802 0 0
0.07497077142881012 0 0
0.06023176553484381 0 0
0.04661773048213675 0 0
0.03440834220370417 0 0
0.02374864218750929 0 0
0.01544418480714716 0 0
0.009121634382460166 0 0
0.004792431882460296 0 0
0.002201936410493736 0 0
0.0007246493462103924 0 0
0 0 0
0 0 0
0 0 0
0 0 0
0 0 0
0 0 0
0 0 0
0 0 0
0 0 0
0 0 0
0 0 0
0 0 0
0 0 0
0 0 0
0 0 0
0 0 0
0 0 0
0 0 0
0.05456912714848397 0 0
0.06700816084988398 0 0
0.1678270462795273 0 0
0.8369926121957142 0 0
0.758743424937968 0 0
0.681551922427738 0 0
0.6043784785736552 0 0
0.5282396153967537 0 0
0.4511835109691563 0 0
0.3734037206366845 0 0
0.2971273710431648 0 0
-7.708481492188587e-05 0 0
0.2313334695642294 0 0
0.7970583306507103 0 0
0.7189218777692735 0 0
0.6413688498844867 0 0
0.5637912076562033 0 0
0.4861564013001241 0 0
0.4083883794468531 0 0
0.3302950608015541 0 0
0.03030467301898236 0 0
0.06392401741390615 0 0
0.9815983300330429 0 0
0.03713991415097264 0 0
0.06131071809142376 0 0
0.03936693063513295 0 0
0.05847397033144824 0 0
0.8753030783187196 0 0
0.0394260007863499 0 0
0.0554319486122665 0 0
0.07399533823434055 0 0
0.06940265232882196 0 0
0.08746842051063572 0 0
0.0820425518737523 0 0
0.09962387197911189 0 0
0.06565628578654281 0 0
0.01906918643796045 0 0
0.222119970592663 0 0
0.09358362654413971 0 0
0.1109255056900529 0 0
0.8952779435447182 0 0
-0.0006099000740196354 0 0
0.1042870693495721 0 0
0.1215753210058048 0 0
0.0002421927942768962 0 0
-0.00101314962645688 0 0
0.1285510333448676 0 0
0.1390823796246784 0 0
0.1146170251440289 0 0
0.09767328977604799 0 0
0.9826649088072386 0 0
0.146640995015872 0 0
0.1570333346540907 0 0
0.02208515025075099 0 0
0.02397105551223301 0 0
0.1649399252074671 0 0
0.1753029952266216 0 0
0.1076234302472283 0 0
0.09112090521212812 0 0
0.1668699526436934 0 0
0.1854507630444065 0 0
0.1937936217700553 0 0
0.2039120104855167 0 0
0.2124987137101664 0 0
0.2225561742648551 0 0
0.2312879253727791 0 0
0.2413394613845901 0 0
0.2500107590181717 0 0
0.2602623480748983 0 0
0.2693982705882092 0 0
0.2793372241828083 0 0
0.2885344510535328 0 0
0.2984427182674464 0 0
0.3077196524621721 0 0
0.3175970990430259 0 0
0.3269367148251879 0 0
0.336787371002613 0 0
0.345998352855686 0 0
0.3559894453227526 0 0
0.3653321326723042 0 0
0.375253670260422 0 0
0.3847222705609535 0 0
0.3945385921375351 0 0
0.4040415015568579 0 0
0.4138323341897685 0 0
0.4233539938077649 0 0
0.4331338429060358 0 0
0.4426724976834889 0 0
0.4524433766081218 0 0
0.461996224052828 0 0
0.4717602625029957 0 0
0.4813245422569248 0 0
0.4910843613855362 0 0
0.5006565775878961 0 0
0.5104118887490168 0 0
0.5199913230650758 0 0
0.5297423228424334 0 0
0.5393280479131454 0 0
0.5490759314637377 0 0