<?xml version="1.0"?>
<VTKFile type="UnstructuredGrid">
  <UnstructuredGrid>
  <Piece NumberOfPoints="1224"  NumberOfCells="2290">
    <Points>
      <DataArray type="Float64" NumberOfComponents="3" format="ascii">
0 0 0
0.6 0 0
0.6 0.2 0
3 0.2 0
3 1 0
0 1 0
0.05454545454535233 0 0
0.1090909090906768 0 0
0.1636363636359771 0 0
0.2181818181812728 0 0
0.2727272727265793 0 0
0.3272727272720317 0 0
0.3818181818176247 0 0
0.4363636363632168 0 0
0.4909090909088285 0 0
0.5454545454544089 0 0
0.6 0.03999999999991203 0
0.6 0.07999999999979179 0
0.6 0.1199999999997886 0
0.6 0.1599999999998948 0
0.6510638297871261 0.2 0
0.7021276595742618 0.2 0
0.7531914893613819 0.2 0
0.8042553191485237 0.2 0
0.8553191489356438 0.2 0
0.9063829787228289 0.2 0
0.957446808509926 0.2 0
1.008510638297009 0.2 0
1.059574468084092 0.2 0
1.110638297871174 0.2 0
1.161702127658257 0.2 0
1.21276595744534 0.2 0
1.263829787232422 0.2 0
1.314893617019505 0.2 0
1.365957446806588 0.2 0
1.417021276593671 0.2 0
1.468085106380754 0.2 0
1.519148936167923 0.2 0
1.570212765955006 0.2 0
1.621276595742088 0.2 0
1.672340425529171 0.2 0
1.723404255316254 0.2 0
1.774468085103337 0.2 0
1.825531914890624 0.2 0
1.876595744677951 0.2 0
1.927659574465349 0.2 0
1.978723404252714 0.2 0
2.029787234040074 0.2 0
2.080851063827477 0.2 0
2.131914893614798 0.2 0
2.182978723402204 0.2 0
2.234042553189523 0.2 0
2.285106382976928 0.2 0
2.336170212764247 0.2 0
2.387234042551653 0.2 0
2.438297872338975 0.2 0
2.489361702126377 0.2 0
2.540425531913739 0.2 0
2.591489361701102 0.2 0
2.642553191488421 0.2 0
2.693617021275827 0.2 0
2.744680851063146 0.2 0
2.795744680850551 0.2 0
2.84680851063787 0.2 0
2.897872340425276 0.2 0
2.948936170212618 0.2 0
3 0.2533333333332341 0
3 0.3066666666664725 0
3 0.3599999999996274 0
3 0.413333333332804 0
3 0.4666666666659806 0
3 0.5199999999991571 0
3 0.5733333333323336 0
3 0.6266666666656895 0
3 0.6799999999991551 0
3 0.7333333333326146 0
3 0.7866666666660802 0
3 0.8399999999995775 0
3 0.8933333333330373 0
3 0.9466666666664969 0
2.949152542373491 1 0
2.898305084746983 1 0
2.847457627120474 1 0
2.796610169493702 1 0
2.745762711866469 1 0
2.694915254239208 1 0
2.644067796611963 1 0
2.593220338985156 1 0
2.542372881358647 1 0
2.491525423732018 1 0
2.44067796610481 1 0
2.389830508477549 1 0
2.338983050850287 1 0
2.288135593223026 1 0
2.237288135595765 1 0
2.186440677968504 1 0
2.135593220341243 1 0
2.084745762713982 1 0
2.033898305086721 1 0
1.983050847459614 1 0
1.932203389832729 1 0
1.881355932205844 1 0
1.830508474578958 1 0
1.779661016952073 1 0
1.728813559325189 1 0
1.677966101698303 1 0
1.627118644071418 1 0
1.576271186444533 1 0
1.525423728817648 1 0
1.474576271190575 1 0
1.423728813563314 1 0
1.372881355936053 1 0
1.322033898308791 1 0
1.27118644068153 1 0
1.220338983054269 1 0
1.169491525427008 1 0
1.118644067799747 1 0
1.067796610172485 1 0
1.016949152545224 1 0
0.9661016949179628 1 0
0.9152542372907018 1 0
0.8644067796634407 1 0
0.8135593220361792 1 0
0.7627118644089181 1 0
0.7118644067816566 1 0
0.661016949154396 1 0
0.6101694915271345 1 0
0.5593220338998739 1 0
0.5084745762726124 1 0
0.4576271186453518 1 0
0.4067796610180903 1 0
0.3559322033908292 1 0
0.3050847457635677 1 0
0.2542372881363066 1 0
0.2033898305090456 1 0
0.1525423728817841 1 0
0.101694915254523 1 0
0.05084745762726151 1 0
0 0.9473684210524125 0
0 0.8947368421048248 0
0 0.8421052631576025 0
0 0.7894736842105994 0
0 0.7368421052635962 0
0 0.6842105263165927 0
0 0.6315789473695894 0
0 0.5789473684225861 0
0 0.5263157894755828 0
0 0.4736842105282874 0
0 0.4210526315806998 0
0 0.3684210526331123 0
0 0.3157894736855248 0
0 0.2631578947379374 0
0 0.21052631579035 0
0 0.1578947368427625 0
0 0.1052631578951749 0
0 0.05263157894758741 0
0.4374856279758046 0.955462795473483 0
0.625531914893563 0.2394317949808221 0
0.7891616249544176 0.9557759867023439 0
2.570562443351098 0.9559758769411787 0
2.364406779663917 0.9559648099769389 0
2.161016949154874 0.9559648099769389 0
1.957627118646171 0.9559648099772646 0
1.756856606547665 0.9560078743553572 0
1.553415402058453 0.9561420672712786 0
1.347457627122422 0.95627738856474 0
1.144067796613377 0.9563034567995272 0
0.04146670856173688 0.5498854761242812 0
0.9828861012149002 0.2442383967812095 0
2.465390809289578 0.2421522008426663 0
2.259572257543314 0.243586373321511 0
2.055319178697841 0.24363095694403 0
1.851066099915384 0.2436741865527954 0
1.646810778591931 0.2437170671454607 0
1.442550972205278 0.2437587738062726 0
1.238275543433999 0.2442249255777628 0
0.5808319854219957 0.2417757800606361 0
0.6039807146029165 0.2785115072887754 0
2.951522810440164 0.5995349944823752 0
0.5591131416216563 0.2791940688436214 0
0.5817690965011905 0.3180386921514113 0
0.5363223429032008 0.3181181454258206 0
0.5590799034518541 0.3577335228902347 0
2.671507320584846 0.2416532643303031 0
0.5129751095268966 0.3576683284772433 0
0.5360042291720796 0.3976917483469583 0
0.5824744072527975 0.3977458985417416 0
0.5593202208963615 0.4382323507424581 0
0.6062221806132498 0.4382172989803606 0
0.5831398502988122 0.4790536480492864 0
0.630245509211025 0.4792447281197085 0
0.5373735766893435 0.4817209888486334 0
0.2780994584865757 0.9660670791366374 0
0.9407829849899363 0.9559852449915113 0
0.6069171020766708 0.5203953730037822 0
0.6544691944766102 0.5205851219036783 0
2.724115018794794 0.9563165682871465 0
0.04341732373162228 0.2894490564426765 0
0.6304562046384772 0.5622881188475496 0
0.6786259291441818 0.5621981517123112 0
0.03938236249337418 0.7091098825652095 0
0.2999999999993055 0.04723774929726795 0
0.7024556039582556 0.5200372393771872 0
0.726826368578132 0.562505099575485 0
0.6545296629344706 0.6041261864689124 0
0.6061411599039735 0.6041581669226386 0
2.954333097254252 0.4393531299125908 0
0.7512905139641642 0.5199435586712576 0
0.7757938242112172 0.5624873891767795 0
0.4902278874550028 0.3174350849704655 0
0.4661669324669476 0.3576870257641042 0
0.8003371868304782 0.5195844107098163 0
0.8251782158071723 0.5621174250913318 0
0.6300572939290072 0.6460588488486728 0
0.581677101888915 0.6462390077748084 0
0.7994632498085218 0.6067218912904607 0
0.850068894442807 0.6047738158182728 0
0.8747482025846163 0.5617915498272615 0
0.8998102571129438 0.6045430073239006 0
0.924588798996443 0.5614360364847856 0
0.9497125983499418 0.6046345614192383 0
0.9744389394813738 0.5613114208485291 0
0.9997656958801404 0.604758732930365 0
1.024028015453996 0.5597386087889248 0
1.050046148741532 0.6042836632406788 0
1.075213347289947 0.5607219500906248 0
1.100604808237692 0.6043040651294929 0
1.125727120818654 0.5598592244124957 0
1.151165990249003 0.6040638744783449 0
1.176319565514503 0.5595216793632644 0
1.201793840633129 0.6038781229769293 0
1.226960854257978 0.5600604284234054 0
1.252470704079807 0.6038664424080111 0
1.277198987313166 0.55874807111347 0
1.303148970446812 0.6035341865995129 0
1.328130525802366 0.5586520846649797 0
1.353966012915828 0.6034054551655909 0
1.379205474149696 0.558835304845746 0
1.404820923589671 0.6032503772964327 0
1.430092956912838 0.5587079795953892 0
1.455686300628245 0.6030926920218221 0
1.480963489515269 0.5580480170404921 0
1.506562983627252 0.6028436706904448 0
1.531847734917255 0.5577680566445021 0
1.557453558526421 0.6026435181305781 0
1.582745756648754 0.5575726351194972 0
1.608358176126191 0.6024617369905624 0
1.633656322435163 0.5573842056888257 0
1.659277805706528 0.6022873884346892 0
1.684577462424181 0.5572075399874397 0
1.710203504633815 0.6021111834258887 0
1.735506494091908 0.5570246051384745 0
1.761134606493805 0.6019307913070558 0
1.786441498808711 0.5568475628142857 0
1.812072359676459 0.6017522495250318 0
1.837381834584306 0.5566653603575672 0
1.863017119880456 0.601574020443024 0
1.888326681794851 0.5564884669211013 0
1.913963858781491 0.601395113412113 0
1.939274704592935 0.5563067813822595 0
1.964908406083961 0.6012129143420911 0
1.990224566339525 0.5561292537946573 0
2.015859329864652 0.601032757987411 0
2.041177190815608 0.5559477304122714 0
2.066818109147928 0.600855564813206 0
2.09213259478423 0.5557710179709322 0
2.117774443326183 0.6006760179252703 0
2.143088896138059 0.5555900146741853 0
2.168729305797513 0.6004921726308964 0
2.194045774061603 0.5554125217101814 0
2.219686577151481 0.6003111949874665 0
2.245003702950199 0.5552312296013228 0
2.270641766736839 0.6001298880828497 0
2.295962173634055 0.5550546947866846 0
2.321601310982481 0.599950595338254 0
2.346923922781879 0.5548708301001631 0
2.372568004594504 0.5997713467128002 0
2.397895756972162 0.5547000681173012 0
2.423546697517365 0.5996004731097838 0
2.448884659670238 0.5545095609010697 0
2.474538141419978 0.5994220729206983 0
2.499902931415869 0.5543494429014709 0
2.525546234724433 0.5993228147833797 0
2.550973655834774 0.5541346321759457 0
2.576685338327378 0.5992395038842441 0
2.602182482443039 0.5540180644105763 0
2.958944511946492 0.7598964409357507 0
2.628014314012249 0.5990918128353608 0
0.4429170888396284 0.3159793431387367 0
0.4184631156771032 0.357715436029677 0
0.3946070818022522 0.3157219358498637 0
0.3697276561976696 0.3576135465858128 0
2.449044355814981 0.643990885448769 0
2.24531935830005 0.6444881680698032 0
1.024857369602972 0.6487487015028032 0
2.041498164113345 0.6452136474256573 0
1.837701628146142 0.6459229900926835 0
0.3455853078837237 0.3150377509381005 0
0.3204780172155196 0.3574251905568473 0
0.3449438693484468 0.4002519798591844 0
1.633970683060678 0.6466170330762969 0
1.227333380683899 0.6479317947648683 0
1.430444030483603 0.6473399689389928 0
0.875196942148915 0.6483605753517908 0
0.6057010339261732 0.6883083412871458 0
0.5571396249147901 0.6885103796531055 0
2.653543252321963 0.5527758280498023 0
1.099471497978971 0.5148848291986879 0
2.602427017093663 0.6438096025956825 0
2.653851606946175 0.6437140715169269 0
1.353138019780104 0.5138574114565649 0
1.556762689169365 0.5115839513085039 0
1.760509743411542 0.5109012431757174 0
1.964341412665395 0.510388685431229 0
0.2953909602266698 0.4001745965167012 0
[...]
    <PointData>
      <DataArray type="Float64" NumberOfComponents="3" Name="Velocity" format="ascii">
3.000000209572022 0 0
0 0 0
0 0 0
3.241052621653243 0 0
3.24078323321671 0 0
3.000000000240024 0 0
2.999999773807335 0 0
2.999999140280881 0 0
3.000014504200624 0 0
3.000144572461559 0 0
2.998745000125076 0 0
2.963078005691146 0 0
2.669359916877046 0 0
1.794485880068331 0 0
0.7472550894506413 0 0
0.1813457001691106 0 0
0 0.129722492349559 0
0 0.2411318019304085 0
0 0.3768409112244314 0
0 0.5417276343278484 0
1.373320503731406 0 0
1.908561340326483 0 0
2.200545710972655 0 0
2.42084224855284 0 0
2.578302467867013 0 0
2.712020385205774 0 0
2.807261693784883 0 0
2.87579776141903 0 0
2.923031340979788 0 0
2.953927597640969 0 0
2.972778093085022 0 0
2.98518708843757 0 0
2.992558923584328 0 0
2.99612391334176 0 0
2.998136520533336 0 0
2.999169338668338 0 0
2.999654621819263 0 0
2.999879778303906 0 0
2.999965765426968 0 0
2.99999404417016 0 0
3.000000423303018 0 0
3.000000666701107 0 0
3.000000202036295 0 0
2.999999984567496 0 0
2.999999979893296 0 0
2.999999999405892 0 0
3.000000001105096 0 0
2.999999999713275 0 0
3.000000000046589 0 0
3.000000000026435 0 0
3.000000000023345 0 0
2.999999999849864 0 0
3.000000000089526 0 0
3.000000000259067 0 0
2.99999999948937 0 0
3.000000000410024 0 0
2.99999999987872 0 0
3.000000007868076 0 0
2.999999940069426 0 0
2.999999549575576 0 0
2.999999968888957 0 0
3.000018782644796 0 0
3.000210881077164 0 0
3.001446480130477 0 0
3.009051626196873 0 0
3.058113147931684 0 0
3.241975346640777 0.001759721629091459 0
3.231848693577743 0.001211967330511618 0
3.233351819519386 0.001004552057797267 0
3.233687302887361 0.0001018709945848141 0
3.236596124026738 -0.0004678794330766526 0
3.238480779855843 -0.000702003467650854 0
3.235935576814843 -0.0003791340519717927 0
3.23490185539571 -0.0005036344160983249 0
3.238561361819537 -7.048547491849791e-05 0
3.236613210721188 -4.061043605208098e-05 0
3.237392610661277 -0.000322679481414776 0
3.23377567944439 -0.0007844759594403246 0
3.230972367082119 -0.001843857865461183 0
3.241829712173612 -0.001355162407706916 0
3.053341696697527 0 0
3.009597604745405 0 0
3.001503319649631 0 0
3.000208326238433 0 0
3.000022192140244 0 0
3.000000876542584 0 0
2.999999680643568 0 0
2.999999929823113 0 0
3.000000002691194 0 0
3.000000000541053 0 0
3.000000000156161 0 0
2.999999999546167 0 0
3.000000000284129 0 0
3.000000000048419 0 0
2.999999999878793 0 0
3.000000000020392 0 0
3.000000000022802 0 0
2.999999999997484 0 0
2.999999999989417 0 0
3.000000000009363 0 0
2.999999999986929 0 0
3.000000000016838 0 0
2.999999999998392 0 0
2.999999999976547 0 0
2.999999999963719 0 0
3.000000000230083 0 0
2.999999999863589 0 0
2.999999998870726 0 0
3.000000000877869 0 0
3.000000006649566 0 0
3.000000006955959 0 0
2.999999998945147 0 0
2.999999968461331 0 0
2.999999912719054 0 0
2.999999842738587 0 0
2.99999975969545 0 0
2.999999690770624 0 0
2.999999602132351 0 0
2.999999372057359 0 0
2.999999338097963 0 0
2.999999650625195 0 0
2.999999930765462 0 0
3.000000056688716 0 0
3.000000078931357 0 0
3.000000060078385 0 0
3.000000032300544 0 0
3.000000011774523 0 0
3.000000000194413 0 0
2.99999999804511 0 0
3.000000000094396 0 0
3.000000000318108 0 0
2.999999999774174 0 0
3.00000000013586 0 0
2.999999999947254 0 0
3.00000000005612 0 0
3.000000000138602 0 0
3.00000000022366 0 0
3.000000000193693 0 0
2.999999999800535 0 0
3.000000000142236 0 0
2.999999999011994 0 0
3.000000000264856 0 0
2.999999999794748 0 0
3.000000000894641 0 0
3.000000001544177 0 0
3.000000001041327 0 0
2.999999997600009 0 0
2.999999995905322 0 0
2.999999999893802 0 0
3.000000007887238 0 0
3.000000021557391 0 0
3.00000002684724 0 0
3.000000019938182 0 0
3.000000055405339 0 0
3.000000090585182 0 0
3.000000095759151 0 0
2.999999998839919 2.05447728463144e-09 0
1.29410500466786 0.5944982647461931 0
2.999999831584077 5.485566027252304e-07 0
2.999999977416137 3.002129495215356e-09 0
2.999999999934012 -3.242426098674939e-11 0
2.999999999960327 -8.3703539954389e-13 0
2.999999999999381 9.67858876789718e-13 0
3.000000000044945 9.910994891668383e-11 0
3.000000002758518 3.50544528751795e-09 0
2.999999927050377 -6.232362102579071e-08 0
2.999999576913034 2.216935952064853e-06 0
3.00000000009421 6.073615059308299e-10 0
2.856517063637038 0.05107306030824784 0
2.999999998750437 -9.367049349596926e-12 0
3.000000000095994 -3.738568447836515e-11 0
2.99999999996004 -5.314189912560149e-12 0
2.999999974690465 1.432193787610984e-09 0
2.999999182482764 -1.900055807443259e-06 0
2.999563985655457 -9.209167807039532e-05 0
2.991010889519961 0.002510466725510642 0
1.133555277729384 0.8221238951379576 0
1.670123561288851 0.8129044157342697 0
3.071737588705457 -0.0003568684291901976 0
1.659639265444725 0.7882763786388991 0
2.044593323965279 0.7230303246145211 0
2.222320484373137 0.5300553020821003 0
2.469156689765845 0.447462255208769 0
2.999999670526544 2.579025006749685e-07 0
2.669824049589675 0.245646287308926 0
2.787750150503913 0.1888150246685318 0
2.664844902087256 0.3381470314627611 0
2.8753109799301 0.129456865962555 0
2.802832608161554 0.2319091740991615 0
2.931393092986273 0.08131236895310975 0
2.891589820197094 0.1454781263649137 0
2.967881129577569 0.03463661360009777 0
3.000000000128813 -1.38269114911493e-10 0
2.999997997013955 6.420049270692932e-06 0
2.964724215558254 0.04701502159811089 0
2.944083522393405 0.0842536353592603 0
3.000009307947711 -1.35908438062206e-06 0
2.999999998429736 2.949188698826144e-09 0
2.98300579873226 0.02516703636369479 0
2.972818405669795 0.04546750092471753 0
3.000000000024398 1.531780813414418e-10 0
2.992141202828089 0.000583214219641488 0
2.926131326356129 0.1323021955586323 0
2.964157562126843 0.07181221147191529 0
2.992043012217575 0.01300473785581994 0
2.995833245248141 0.006170958407290716 0
3.083063119208663 -0.0002773307647083991 0
2.926798907500963 0.1587834130311371 0
2.963673874581759 0.09057995462361153 0
2.538183819937412 0.2788633363159928 0
2.857495673501689 0.09545315487012387 0
2.939233514666025 0.1626368797368574 0
2.970318243693992 0.09489083030963244 0
2.998069652380558 0.003135552125669005 0
2.999150699446165 0.001270282832460103 0
2.983393047049928 0.04691123866642165 0
2.986591187033995 0.05126101694111234 0
2.979748301921119 0.09077592872019401 0
2.991590591864377 0.04889319299951844 0
2.989557048762565 0.08061931831149087 0
2.99661111216066 0.04276213182677968 0
2.997946985040272 0.06664616710008364 0
3.000643245848089 0.03455691061569742 0
3.003870897897738 0.05164880755481851 0
3.003155564805601 0.02610236787175088 0
3.006766435676953 0.03604464799882477 0
3.004096456965572 0.017945855548715 0
3.007240332591537 0.02387311855295281 0
3.003890321890587 0.01145540422333163 0
3.006187574199381 0.01444673999804073 0
3.003084861182795 0.006774449756083217 0
3.004495522104608 0.007948080877993617 0
3.002117628612024 0.003658062017478454 0
3.002918741653962 0.004047137280386563 0
3.001281012381657 0.001793090161478541 0
3.00162903272129 0.001806388282377043 0
3.000676693459735 0.0007841683834159937 0
3.000788786036723 0.0007041551964277646 0
3.000309319157282 0.000303014070183085 0
3.000332219280375 0.0002385047909659251 0
3.000116642199521 9.825584976386835e-05 0
3.000116937542613 6.77575422810323e-05 0
3.000034666999846 2.633452665223978e-05 0
3.000032097689427 1.5530659996789e-05 0
3.000006908658714 5.521660430358734e-06 0
3.000005764692923 2.78358579084552e-06 0
3.000000204785569 8.175706340364879e-07 0
3.00000007204323 4.468177775674695e-07 0
2.999999505153819 6.860015262743005e-08 0
2.999999610246992 1.09228114483241e-07 0
2.99999981142662 -1.422757959027509e-08 0
2.999999855890465 2.238314828342112e-08 0
2.999999975564329 -1.155070350446329e-08 0
2.999999984510459 -5.223717541555511e-09 0
3.000000009317822 -4.898111015023536e-09 0
3.000000006540737 -5.269082618221452e-09 0
3.000000000504047 9.64966868963206e-10 0
2.999999999958479 9.149376991849725e-10 0
2.999999999451458 1.185745664305073e-10 0
2.999999999821109 1.190790407435763e-10 0
3.00000000015084 -1.223470291479111e-10 0
3.00000000000532 -1.053032065229102e-10 0
2.999999999975211 4.106787534384498e-11 0
3.000000000016994 3.198804247739641e-11 0
3.000000000006875 -7.786248593663464e-12 0
2.999999999987309 -5.293721251390822e-12 0
3.000000000006885 1.585268126246709e-12 0
2.999999999997353 -3.415512974455805e-12 0
2.999999999982169 9.968787504468659e-13 0
3.000000000043082 1.903875708142397e-12 0
2.999999999963914 -3.254207818425163e-12 0
2.999999999978677 3.325906410189182e-12 0
3.000000000105245 2.659618329467877e-13 0
2.999999999862217 -2.312335051507368e-12 0
3.00000000005276 7.071858748573323e-12 0
3.000000000145614 -2.0767304476245e-12 0
2.999999999644658 -7.161998336244632e-12 0
3.000000000294746 4.460699104540994e-12 0
3.000000000267027 2.031638051804895e-12 0
2.999999999062253 -2.346552991779108e-12 0
3.000000000395217 -2.437176693418076e-11 0
3.000000003041707 -1.466899791390855e-11 0
2.999999999682335 9.938154843659811e-11 0
2.999999983061863 1.843755652125379e-10 0
2.999999932979114 1.415775504747989e-09 0
2.999999855992344 3.533381831956454e-09 0
3.092297783094274 -0.0001116859631341311 0
2.999999848207767 2.456151643951877e-09 0
2.812954125079184 0.1017867519559417 0
2.957176178892415 0.02659777309982718 0
2.95062316316921 0.02460049337248509 0
2.990996071673678 0.005260150208361757 0
2.999999999097662 1.080336997064132e-11 0
2.999999999971687 1.09875198305027e-12 0
3.000910384203237 0.01612559914650417 0
3.000000000012656 -1.492813390919815e-11 0
3.000000001808584 1.169950488307294e-09 0
2.99278809720012 0.003287285483461629 0
2.999197028245514 0.0004533832600194133 0
2.998690551132056 0.0009043643952427356 0
2.99999945313554 4.416723087343553e-08 0
3.001240099374047 0.002741194101400092 0
3.000086304940855 0.0001013082875738184 0
2.994482317795266 0.02538106505502155 0
2.99960275961755 0.0006456709640053145 0
2.999857610281464 0.0002168711795942185 0
3.000000145339501 7.985489759442951e-09 0
3.01020529310525 0.04357265773991473 0
2.999999861767539 1.662817437667129e-09 0
3.000000129337335 -2.007419215124635e-08 0
3.00166178750875 0.001414710408760406 0
3.000025510112184 5.500417397500716e-06 0
2.999999909142699 4.287803564716289e-08 0
3.00000000001168 6.324110102514452e-11 0
2.999971091013303 2.70961049080133e-05 0
2.999852961865818 0.0001216529575296846 0
2.999999999984482 5.224364940217197e-12 0
2.999999999655887 2.739341962032999e-12 0
2.999999929222996 7.93287898149412e-10 0
2.883722692175059 0.2577896475535731 0
2.988944685090407 0.1164574742254728 0
2.999999836979404 -1.832248503341656e-09 0
3.000001553993104 -9.282102009400028e-08 0
2.999934310985322 0.0001080425650322799 0
2.999854583838857 0.0002615631373008526 0
2.999981553241099 2.958540518618491e-05 0
2.999961103377689 5.879554177694776e-05 0
2.999996456610186 6.028912139465416e-06 0
2.999992638785476 1.198482746235816e-05 0
2.999999832099041 5.837431852076381e-07 0
2.999999461698909 1.418844473501339e-06 0
3.000000171974796 -1.438767286583328e-07 0
3.000000240000968 -1.215462767594459e-07 0
3.000000065100577 -8.192016606100579e-08 0
3.000000116045235 -1.292518409625662e-07 0
0.1560361097721852 0.4405155289204967 0
2.789765441751647 0.08986405361841959 0
3.000000005644933 -1.190246351557403e-08 0
2.999842533135549 7.398602867288165e-05 0
3.000784046105406 0.0001086853932030209 0
3.000007193042574 -3.073059779053855e-06 0
2.541644023440039 0.1566188315522926 0
3.000000013693731 -2.387296896613067e-08 0
3.000000069559633 -1.292983662810634e-08 0
2.99999986763244 2.362710226280925e-09 0
3.000006772539038 -2.220540456279732e-07 0
3.00002495725998 -1.038745692794714e-06 0
2.113654951216565 0.2584700046770019 0
2.999992546886638 1.274829640503437e-05 0
3.000062678905921 -4.031126300261965e-06 0
2.999999999597031 -9.746630059781012e-10 0
2.999999981817178 4.047419229782172e-09 0
2.99717648129197 0.0007918907787478926 0
3.00006470343794 5.962877298548726e-06 0
3.000000000092779 8.032966225661487e-11 0
3.000000029570602 -2.513639991446944e-08 0
3.000000000002443 -2.701132071516348e-12 0
3.000000000216868 -1.248345294079194e-10 0
2.999999966198857 -2.265622860142665e-08 0
3.00000607370522 7.506675443874454e-06 0
2.999999999939992 3.050761282953347e-13 0
3.000000001703615 -1.040543250041607e-11 0
2.999999999992933 1.380247776132895e-11 0
2.999946131489744 -2.551384121255736e-05 0
3.000000403353843 3.782631612816393e-08 0
2.945257848602352 0.01952944478733434 0
2.997759583815035 0.0001455983341709749 0
3.000439208533787 0.0006665795570947842 0
3.000000000007874 -9.930904401393606e-16 0
2.999999999688579 -3.626000209246858e-08 0
2.999999998900102 -2.315837857245358e-11 0
2.999998958998886 7.157783119948921e-06 0
2.999999775412308 3.765801195553034e-07 0
3.000000000088064 2.20208247795681e-11 0
2.999999999505747 -4.788428021097319e-10 0
2.999999999999065 -8.695878067854841e-12 0
2.999999999960034 -8.345201394674807e-11 0
3.001993957088592 0.007909809491940272 0
3.000000000019424 1.287971581115018e-11 0
3.000000003138251 -5.216412005934617e-09 0
3.000000058141943 2.401972591922717e-07 0
3.000305270478957 0.0001424003801793716 0
3.000000000174261 2.552979641984594e-12 0
3.000000000102785 -1.197212128126123e-12 0
3.007691788431462 0.01499358197072369 0
2.999999984600494 -5.11658380617766e-09 0
2.999998573373777 3.117014283357786e-06 0
3.000765948522685 -6.145159232251264e-05 0
2.338574201419537 0.02656628607790183 0
3.000000000517056 -1.630606287959216e-12 0
3.000013143725897 -5.226680369414703e-06 0
3.000000028697442 -4.252848147307614e-08 0
2.582945000963386 0.4768498739965539 0
3.000002202480721 -1.146501380544507e-06 0
2.999999996006698 3.939630240036692e-09 0
3.000000196678219 -1.880796072433699e-07 0
3.000000024235033 -3.507584752636754e-08 0
3.000073493707369 -1.815264545482079e-06 0
2.999999839049472 -3.001980630121502e-10 0
2.999999942657042 1.738411906048304e-09 0
2.999999952934555 2.30480701311232e-07 0
3.000000021198469 -4.419312229779619e-08 0
2.999923876122787 0.0001092713266142731 0
3.000216520219722 -8.292903927616256e-06 0
2.999999997841232 2.717165595790755e-09 0
2.998883456496823 0.0009339791031478277 0
2.99950788028262 0.0002354817408209288 0
3.000101016342766 -9.599046802136676e-06 0
3.000032371280936 -8.111837733019553e-06 0
3.000023402020094 -4.1804245993081e-07 0
3.000204941777572 -1.672733036246387e-06 0
3.082951979304653 0.001420279978135714 0
3.067039538989341 -0.001261671474844789 0
2.999867249807985 0.0001315029284454959 0
3.000000000751698 -9.18177329078631e-10 0
2.912804184987566 0.2410223138327653 0
2.83966186060891 0.3445275246416716 0
2.886975001675279 0.2972016636298524 0
3.000082805814315 -3.078375068538891e-06 0
2.99672675540183 0.005890377012560474 0
1.280456317029493 0.7617785766566537 0
2.999247318141405 0.0007464905535373906 0
3.00000169165658 -8.088283387069138e-07 0
3.000000129843967 -8.674233291419714e-08 0
3.00000031379724 -1.679751360797921e-07 0
3.00001806547284 -5.122015393816807e-06 0
3.000000000245932 -8.71975388375248e-10 0
2.806831185508269 0.3691452420035889 0
2.864294551440623 0.2991263407247962 0
2.727356270792952 0.4446331390237063 0
3.000651445529405 -2.424326014028552e-05 0
3.000246931479158 -3.225995482430399e-06 0
2.999999999842125 1.512495211722491e-10 0
3.000000000771739 -2.027187986923159e-10 0
2.999999872779357 1.758649965020118e-09 0
2.999999988366571 1.097256553241955e-09 0
3.000000001483329 2.426815701018628e-11 0
3.000000002579745 -1.459784946815837e-10 0
2.999999999858317 -1.063861701453112e-12 0
2.999999999250924 4.039239006829688e-11 0
3.00000000043421 -1.590181600452476e-11 0
3.000000000105338 -1.116857020107267e-12 0
2.999999999655668 -4.814538713923953e-12 0
3.000000000215191 2.173257479464927e-11 0
2.999999999999295 -3.085499930617442e-12 0
2.999999999885577 -1.639472253999368e-11 0
3.000000000125278 1.285204746975265e-11 0
2.999999999974244 -2.209159708176791e-11 0
2.999999999956807 1.01614530126952e-11 0
3.000000000027742 2.195319011672349e-11 0
2.999999999988824 -2.1176696440433e-11 0
2.999999999997251 2.834951338777322e-12 0
3.000000000009871 6.604087989084334e-12 0
2.999999999999472 -1.133671888299262e-11 0
2.999999999997222 5.579075415670656e-12 0
3.000000000001712 5.554535300936001e-12 0
3.000000000002544 -4.10956450279484e-12 0
3.000000000002222 -4.331530290413557e-13 0
2.999999999986129 -9.275081848348148e-12 0
2.99999999996664 -9.594753503730979e-12 0
3.000000000042259 5.747449973685637e-11 0
3.000000000077182 6.674123339138901e-11 0
3.000000000062593 -2.158112177701435e-10 0
3.000000000073089 -1.871889476149388e-10 0
2.999999998971763 2.393274832762209e-10 0
2.999999999060111 -1.14201689845942e-10 0
3.00000000275731 2.907493772819484e-09 0
3.000000000730367 2.800150175128807e-09 0
3.000000012583969 -1.923928500722644e-09 0
3.000000010058525 2.758290627415479e-09 0
2.999999995486551 -3.345017625294767e-08 0
3.000000010695335 -1.741067874945627e-08 0
2.99999990363922 -1.18945848384433e-07 0
2.999999969342261 -8.332166140685884e-08 0
2.99999966821299 -2.332169506780209e-07 0
2.999999833633889 -1.999466426108885e-07 0
2.999999370906412 -3.976481654891593e-08 0
2.999999620392632 -1.739586311121725e-07 0
2.999999594218958 1.725317566497563e-06 0
2.999999578230079 6.896652943090437e-07 0
3.000001739232463 8.55863589745936e-06 0
3.000000244433612 4.21775395912927e-06 0
3.000008281560503 2.791616355256934e-05 0
3.00000239323647 1.394834831149755e-05 0
3.000021824378872 7.238243555537746e-05 0
3.000006612347532 3.525711880826084e-05 0
3.000043135786726 0.0001592182261369046 0
3.00001254281736 7.416978844301624e-05 0
3.000068427946251 0.0003050316657500606 0
3.00001877871385 0.0001362785898034372 0
3.000089162909801 0.0005227264620532853 0
3.000022508857393 0.0002282369183953315 0
3.00009054625139 0.0008230428417757192 0
3.000015911736419 0.0003534912804344527 0
3.000047584249538 0.001187067249673417 0
2.999988589177744 0.0004886923238178279 0
2.999940490032487 0.001535251039280308 0
2.999939305855429 0.0005915750162064236 0
2.999782238729077 0.001763731278949391 0
2.999886207303729 0.0005969590070614697 0
2.999634920274096 0.001709054779946288 0
2.999877745862696 0.0004230463794217434 0
2.999627492617063 0.001189471091142592 0
2.999910972468097 0.000251502538287624 0
2.999730563253757 0.0007067493164718437 0
2.999945026421446 0.0001401116081808409 0
3.000073270418773 -1.630951884437331e-06 0
3.000575343982503 -7.215701051278398e-06 0
3.000000289797686 -2.312964515662686e-07 0
3.000000033134514 -3.76804059612107e-08 0
3.000047175654236 8.921105372877835e-05 0
2.991208837517648 0.002067855127620032 0
3.001487150504448 -3.934091994146484e-05 0
2.999834385314887 0.0003891740884499975 0
2.999971017918073 6.86495660302724e-05 0
2.999246184726411 0.001814560419677246 0
3.000001632457135 -7.727199445682651e-07 0
3.001782982793568 -2.0565243105273e-05 0
3.000636886019724 5.049934768630495e-08 0
3.004023453342431 1.020736482494909e-05 0
3.001556333329305 -5.179801574045826e-05 0
3.00023349623933 -6.235444413152156e-06 0
3.000641928105802 -3.645108868891871e-05 0
3.00008724663041 -4.119800928629319e-06 0
3.000264579473234 -1.086043178766689e-05 0
3.00003042315467 -7.691961615086678e-07 0
3.000093016613041 2.255967981658717e-06 0
3.000008476782887 5.404057590687049e-07 0
3.00083297349678 1.163721452071584e-05 0
3.000001859126939 5.968299162211881e-09 0
3.000000072197556 6.435838928341035e-08 0
2.999912218298403 0.0001018660648184511 0
2.999532590407767 0.0005272513303459082 0
2.999999963776945 1.146069735889296e-08 0
2.999974761822958 7.371913461128522e-05 0
2.999999332997254 5.377656610487791e-08 0
3.000000000138773 2.933082782741556e-10 0
0.3505689101833104 0.1009274893682737 0
2.99999981622475 3.982771368543183e-09 0
2.999999846693782 -2.146606678695075e-09 0
2.999999930780857 -1.733032566189219e-09 0
2.999999986800407 -2.282500010888577e-09 0
3.000000001032365 -3.116835832020111e-10 0
3.000000002987501 1.448577728306309e-10 0
3.000000000144571 7.318750140955445e-11 0