<?xml version="1.0"?>
<VTKFile type="UnstructuredGrid">
  <UnstructuredGrid>
  <Piece NumberOfPoints="1224"  NumberOfCells="2290">
    <Points>
      <DataArray type="Float64" NumberOfComponents="3" format="ascii">
0 0 0
0.6 0 0
0.6 0.2 0
43 0.2 0
43 1 0
0 1 0
0.05454545454535233 0 0
0.1090909090906768 0 0
0.1636363636359771 0 0
0.2181818181812728 0 0
0.2727272727265793 0 0
0.3272727272720317 0 0
0.3818181818176247 0 0
0.4363636363632168 0 0
0.4909090909088285 0 0
0.5454545454544089 0 0
0.6 0.03999999999991203 0
0.6 0.07999999999979179 0
0.6 0.1199999999997886 0
0.6 0.1599999999998948 0
4.405404397457692 0.2 0
5.597007689882322 0.2 0
6.600966170798373 0.2 0
7.543211285400337 0.2 0
8.447457098281502 0.2 0
9.327663926851233 0.2 0
10.19099447398137 0.2 0
11.04269065541126 0.2 0
11.88600970885533 0.2 0
12.72313218269773 0.2 0
13.55561337156198 0.2 0
14.38457194515215 0.2 0
15.2108195571202 0.2 0
16.03498210809392 0.2 0
16.85751318455643 0.2 0
17.6787563906102 0.2 0
18.49898341259025 0.2 0
19.31840403993547 0.2 0
20.13718260051303 0.2 0
20.95544781833535 0.2 0
21.77330180435236 0.2 0
22.59082534467077 0.2 0
23.40808300336769 0.2 0
24.2251262145015 0.2 0
25.04199630349219 0.2 0
25.85872636801356 0.2 0
26.67534310723514 0.2 0
27.49186799141029 0.2 0
28.30831839153783 0.2 0
29.12470832451822 0.2 0
29.94104915760512 0.2 0
30.75735008938839 0.2 0
31.57361859367018 0.2 0
32.3898607327047 0.2 0
33.20608142659324 0.2 0
34.02228467739407 0.2 0
34.83847385370417 0.2 0
35.65465162479342 0.2 0
36.47082009156892 0.2 0
37.28698113835555 0.2 0
38.10313623081611 0.2 0
38.91928658503749 0.2 0
39.73543324396906 0.2 0
40.55157722089631 0.2 0
41.36771921450234 0.2 0
42.18385993686231 0.2 0
43 0.2533333333332341 0
43 0.3066666666664725 0
43 0.3599999999996274 0
43 0.413333333332804 0
43 0.4666666666659806 0
43 0.5199999999991571 0
43 0.5733333333323336 0
43 0.6266666666656895 0
43 0.6799999999991551 0
43 0.7333333333326146 0
43 0.7866666666660802 0
43 0.8399999999995775 0
43 0.8933333333330373 0
43 0.9466666666664969 0
42.18734844142624 1 0
41.37469749200919 1 0
40.56204779241356 1 0
39.74940005694015 1 0
38.93675504130869 1 0
38.12411360818004 1 0
37.31147684612534 1 0
36.49884583648162 1 0
35.68622227336908 1 0
34.87360771557737 1 0
34.06100435139847 1 0
33.24841493578255 1 0
32.43584241654929 1 0
31.62329097794607 1 0
30.81076504450378 1 0
29.99827091178297 1 0
29.18581518897928 1 0
28.37340763970717 1 0
27.56105767264389 1 0
26.74878021719863 1 0
25.93658988997555 1 0
25.12450857490956 1 0
24.31256069513683 1 0
23.5007761831883 1 0
22.68919292103583 1 0
21.8778574646044 1 0
21.06682671741777 1 0
20.25617145887687 1 0
19.44598062782494 1 0
18.63635655459061 1 0
17.82742856082269 1 0
17.01937106533463 1 0
16.2123626430129 1 0
15.40666300444368 1 0
14.60256424035781 1 0
13.80042915223702 1 0
13.0007027687661 1 0
12.20392049738112 1 0
11.41073703873838 1 0
10.62191196189079 1 0
9.838334935288387 1 0
9.061022084752937 1 0
8.290973132472747 1 0
7.529161270515323 1 0
6.776510892247139 1 0
6.034460582385375 1 0
5.305245961776274 1 0
4.593478162713538 1 0
3.90743320433422 1 0
3.260059251532736 1 0
2.659855011175227 1 0
2.118225433192455 1 0
1.639064591266863 1 0
1.24423827063018 1 0
0.9129286635979884 1 0
0.6372937519121319 1 0
0.4034279527120154 1 0
0.1943141905652872 1 0
0 0.9473684210524125 0
0 0.8947368421048248 0
0 0.8421052631576025 0
0 0.7894736842105994 0
0 0.7368421052635962 0
0 0.6842105263165927 0
0 0.6315789473695894 0
0 0.5789473684225861 0
0 0.5263157894755828 0
0 0.4736842105282874 0
0 0.4210526315806998 0
0 0.3684210526331123 0
0 0.3157894736855248 0
0 0.2631578947379374 0
0 0.21052631579035 0
0 0.1578947368427625 0
0 0.1052631578951749 0
0 0.05263157894758741 0
3.0107102622593 0.955462795473483 0
3.556987353984685 0.2394317949808221 0
7.921843288755204 0.9557759867023439 0
36.13673252731491 0.9559758769411787 0
32.84211949312839 0.9559648099769389 0
29.59202234902461 0.9559648099769389 0
26.34263848480103 0.9559648099772646 0
23.13668784523854 0.9560078743553572 0
19.89175783704599 0.9561420672712786 0
16.61533720133316 0.95627738856474 0
13.39942529891581 0.9563034567995272 0
0.1089201510008258 0.5498854761242812 0
10.61945410159286 0.2442383967812095 0
34.45533602095819 0.2421522008426663 0
31.16546294024059 0.243586373321511 0
27.90012543663802 0.24363095694403 0
24.63367055465322 0.2436741865527954 0
21.36458146986904 0.2437170671454607 0
18.08924390651269 0.2437587738062726 0
14.79839110095159 0.2442249255777628 0
1.938457654399702 0.2417757800606361 0
3.421270482849062 0.2785115072887754 0
42.22521594683635 0.5995349944823752 0
2.239477823625478 0.2791940688436214 0
3.306288332279493 0.3180386921514113 0
2.337630922709498 0.3181181454258206 0
3.181423140361263 0.3577335228902347 0
37.7497583683778 0.2416532643303031 0
2.340382882436274 0.3576683284772433 0
3.047467093177468 0.3976917483469583 0
3.864365930243508 0.3977458985417416 0
3.662635171911302 0.4382323507424581 0
4.454918399167799 0.4382172989803606 0
4.21733921854519 0.4790536480492864 0
4.985128169444129 0.4792447281197085 0
3.497976782352606 0.4817209888486334 0
1.419701041754645 0.9660670791366374 0
10.22939453264363 0.9559852449915113 0
4.721727949064292 0.5203953730037822 0
5.475944807335176 0.5205851219036783 0
38.59078078169692 0.9563165682871465 0
0.06783439385416395 0.2894490564426765 0
5.187612307612275 0.5622881188475496 0
5.936743569875016 0.5621981517123112 0
0.1286264056705098 0.7091098825652095 0
0.305933438540995 0.04723774929726795 0
6.237909433878012 0.5200372393771872 0
6.691085899965685 0.562505099575485 0
5.63562776396545 0.6041261864689124 0
4.899765566998342 0.6041581669226386 0
42.27012318519278 0.4393531299125908 0
7.015697271572055 0.5199435586712576 0
7.460828628048354 0.5624873891767795 0
1.578807351921982 0.3174350849704655 0
1.660880733419575 0.3576870257641042 0
7.798877660515364 0.5195844107098163 0
8.240952884440187 0.5621174250913318 0
5.332288658252796 0.6460588488486728 0
4.613986375998102 0.6462390077748084 0
7.881164564390732 0.6067218912904607 0
8.67306143186733 0.6047738158182728 0
9.027841668565085 0.5617915498272615 0
9.457491371560018 0.6045430073239006 0
9.821702611539415 0.5614360364847856 0
10.24787328389868 0.6046345614192383 0
10.61757555291853 0.5613114208485291 0
11.04288791213662 0.604758732930365 0
11.40957276850027 0.5597386087889248 0
11.84285995123953 0.6042836632406788 0
12.2288211029944 0.5607219500906248 0
12.64854043142621 0.6043040651294929 0
13.03680116048458 0.5598592244124957 0
13.45493558205984 0.6040638744783449 0
13.84632108776963 0.5595216793632644 0
14.26293553180726 0.6038781229769293 0
14.65678209096004 0.5600604284234054 0
15.07209854378713 0.6038664424080111 0
15.46038094345865 0.55874807111347 0
15.88148492454016 0.6035341865995129 0
16.27520995615515 0.5586520846649797 0
16.69328451359193 0.6034054551655909 0
17.0922343395787 0.558835304845746 0
17.50579893256754 0.6032503772964327 0
17.90612950205765 0.5587079795953892 0
18.31856199803918 0.6030926920218221 0
18.71963275767236 0.5580480170404921 0
19.13155757446102 0.6028436706904448 0
19.53330525630333 0.5577680566445021 0
19.94481753565089 0.6026435181305781 0
20.34713313185248 0.5575726351194972 0
20.75833033281764 0.6024617369905624 0
21.16110410361146 0.5573842056888257 0
21.57210272694592 0.6022873884346892 0
21.9751927286123 0.5572075399874397 0
22.38598540689607 0.6021111834258887 0
22.7893654603502 0.5570246051384745 0
23.1999641248197 0.6019307913070558 0
23.60359831446177 0.5568475628142857 0
24.01405612338766 0.6017522495250318 0
24.41788697607225 0.5566653603575672 0
24.82826506526088 0.601574020443024 0
25.23222332901858 0.5564884669211013 0
25.64250915337036 0.601395113412113 0
26.04659031012761 0.5563067813822595 0
26.45672083330397 0.6012129143420911 0
26.86097012182664 0.5561292537946573 0
27.27103629459139 0.601032757987411 0
27.67538040792182 0.5559477304122714 0
28.08547871083257 0.600855564813206 0
28.4898238966684 0.5557710179709322 0
28.8998830285317 0.6006760179252703 0
29.3042724830592 0.5555900146741853 0
29.71426452468365 0.6004921726308964 0
30.11872270157927 0.5554125217101814 0
30.52868506582163 0.6003111949874665 0
30.93318350215658 0.5552312296013228 0
31.34307271891876 0.6001298880828497 0
31.7476478727437 0.5550546947866846 0
32.15753025137651 0.599950595338254 0
32.5621604565349 0.5548708301001631 0
32.97210225303004 0.5997713467128002 0
33.37683081680192 0.5547000681173012 0
33.78686619273983 0.5996004731097838 0
34.19177116517567 0.5545095609010697 0
34.60183400869082 0.5994220729206983 0
35.00717865716113 0.5543494429014709 0
35.41706806399125 0.5993228147833797 0
35.82342257305937 0.5541346321759457 0
36.23439603603009 0.5992395038842441 0
36.64187228066658 0.5540180644105763 0
42.343840120354 0.7598964409357507 0
37.05475859067726 0.5990918128353608 0
1.10574926497029 0.3159793431387367 0
1.196977912809286 0.357715436029677 0
0.8112774193871604 0.3157219358498637 0
0.8794125677515578 0.3576135465858128 0
34.19443787640283 0.643990885448769 0
30.93848742942052 0.6444881680698032 0
11.45979075563917 0.6487487015028032 0
27.68109537245007 0.6452136474256573 0
24.42432289337615 0.6459229900926835 0
0.6180717359720901 0.3150377509381005 0
0.6637630979819164 0.3574251905568473 0
0.9151393098617222 0.4002519798591844 0
21.16914455440154 0.6466170330762969 0
14.67848520567246 0.6479317947648683 0
17.91861622253846 0.6473399689389928 0
9.10060826305115 0.6483605753517908 0
5.033736345991582 0.6883083412871458 0
4.330693055029802 0.6885103796531055 0
37.46274858194818 0.5527758280498023 0
12.60250182701792 0.5148848291986879 0
36.6458411230158 0.6438096025956825 0
37.46772576759784 0.6437140715169269 0
16.67050065423193 0.5138574114565649 0
19.92959676606501 0.5115839513085039 0
23.18815553462452 0.5109012431757174 0
26.44685973506609 0.510388685431229 0
0.6863422455358393 0.4001745965167012 0
0.921877242567952 0.4433206937839571 0
29.70562977196986 0.5096846626216972 0
[...]
    <PointData>
      <DataArray type="Float64" NumberOfComponents="3" Name="Velocity" format="ascii">
-nan -nan 0
-nan -nan 0
-nan -nan 0
-nan -nan 0
-nan -nan 0
-nan -nan 0
-nan -nan 0
-nan -nan 0
-nan -nan 0
-nan -nan 0
-nan -nan 0
-nan -nan 0
-nan -nan 0
-nan -nan 0
-nan -nan 0
-nan -nan 0
-nan -nan 0
-nan -nan 0
-nan -nan 0
-nan -nan 0
-nan -nan 0
-nan -nan 0
-nan -nan 0
-nan -nan 0
-nan -nan 0
-nan -nan 0
-nan -nan 0
-nan -nan 0
-nan -nan 0
-nan -nan 0
-nan -nan 0
-nan -nan 0
-nan -nan 0
-nan -nan 0
-nan -nan 0
-nan -nan 0
-nan -nan 0
-nan -nan 0
-nan -nan 0
-nan -nan 0
-nan -nan 0
-nan -nan 0
-nan -nan 0
-nan -nan 0
-nan -nan 0
-nan -nan 0
-nan -nan 0
-nan -nan 0
-nan -nan 0
-nan -nan 0
-nan -nan 0
-nan -nan 0
-nan -nan 0
-nan -nan 0
-nan -nan 0
-nan -nan 0
-nan -nan 0
-nan -nan 0
-nan -nan 0
-nan -nan 0
-nan -nan 0
-nan -nan 0
-nan -nan 0
-nan -nan 0
-nan -nan 0
-nan -nan 0
-nan -nan 0
-nan -nan 0
-nan -nan 0
-nan -nan 0
-nan -nan 0
-nan -nan 0
-nan -nan 0
-nan -nan 0
-nan -nan 0
-nan -nan 0
-nan -nan 0
-nan -nan 0
-nan -nan 0
-nan -nan 0
-nan -nan 0
-nan -nan 0
-nan -nan 0
-nan -nan 0
-nan -nan 0
-nan -nan 0
-nan -nan 0
-nan -nan 0
-nan -nan 0
-nan -nan 0
-nan -nan 0
-nan -nan 0
-nan -nan 0
-nan -nan 0
-nan -nan 0
-nan -nan 0
-nan -nan 0
-nan -nan 0
-nan -nan 0
-nan -nan 0
-nan -nan 0
-nan -nan 0
-nan -nan 0
-nan -nan 0
-nan -nan 0
-nan -nan 0
-nan -nan 0
-nan -nan 0
-nan -nan 0
-nan -nan 0
-nan -nan 0
-nan -nan 0
-nan -nan 0
-nan -nan 0
-nan -nan 0
-nan -nan 0
-nan -nan 0
-nan -nan 0
-nan -nan 0
-nan -nan 0
-nan -nan 0
-nan -nan 0
-nan -nan 0
-nan -nan 0
-nan -nan 0
-nan -nan 0
-nan -nan 0
-nan -nan 0
-nan -nan 0
-nan -nan 0
-nan -nan 0
-nan -nan 0
-nan -nan 0
-nan -nan 0
-nan -nan 0
-nan -nan 0
-nan -nan 0
-nan -nan 0
-nan -nan 0
-nan -nan 0
-nan -nan 0
-nan -nan 0
-nan -nan 0
-nan -nan 0
-nan -nan 0
-nan -nan 0
-nan -nan 0
-nan -nan 0
-nan -nan 0
-nan -nan 0
-nan -nan 0
-nan -nan 0
-nan -nan 0
-nan -nan 0
-nan -nan 0
-nan -nan 0
-nan -nan 0
-nan -nan 0
-nan -nan 0
-nan -nan 0
-nan -nan 0
-nan -nan 0
-nan -nan 0
-nan -nan 0
-nan -nan 0
-nan -nan 0
-nan -nan 0
-nan -nan 0
-nan -nan 0
-nan -nan 0
-nan -nan 0
-nan -nan 0
-nan -nan 0
-nan -nan 0
-nan -nan 0
-nan -nan 0
-nan -nan 0
-nan -nan 0
-nan -nan 0
-nan -nan 0
-nan -nan 0
-nan -nan 0
-nan -nan 0
-nan -nan 0
-nan -nan 0
-nan -nan 0
-nan -nan 0
-nan -nan 0
-nan -nan 0
-nan -nan 0
-nan -nan 0
-nan -nan 0
-nan -nan 0
-nan -nan 0
-nan -nan 0
-nan -nan 0
-nan -nan 0
-nan -nan 0
-nan -nan 0
-nan -nan 0
-nan -nan 0
-nan -nan 0
-nan -nan 0
-nan -nan 0
-nan -nan 0
-nan -nan 0
-nan -nan 0
-nan -nan 0
-nan -nan 0
-nan -nan 0
-nan -nan 0
-nan -nan 0
-nan -nan 0
-nan -nan 0
-nan -nan 0
-nan -nan 0
-nan -nan 0
-nan -nan 0
-nan -nan 0
-nan -nan 0
-nan -nan 0
-nan -nan 0
-nan -nan 0
-nan -nan 0
-nan -nan 0
-nan -nan 0
-nan -nan 0
-nan -nan 0
-nan -nan 0
-nan -nan 0
-nan -nan 0
-nan -nan 0
-nan -nan 0
-nan -nan 0
-nan -nan 0
-nan -nan 0
-nan -nan 0
-nan -nan 0
-nan -nan 0
-nan -nan 0
-nan -nan 0
-nan -nan 0
-nan -nan 0
-nan -nan 0
-nan -nan 0
-nan -nan 0
-nan -nan 0
-nan -nan 0
-nan -nan 0
-nan -nan 0
-nan -nan 0
-nan -nan 0
-nan -nan 0
-nan -nan 0
-nan -nan 0
-nan -nan 0
-nan -nan 0
-nan -nan 0
-nan -nan 0
-nan -nan 0
-nan -nan 0
-nan -nan 0
-nan -nan 0
-nan -nan 0
-nan -nan 0
-nan -nan 0
-nan -nan 0
-nan -nan 0
-nan -nan 0
-nan -nan 0
-nan -nan 0
-nan -nan 0
-nan -nan 0
-nan -nan 0
-nan -nan 0
-nan -nan 0
-nan -nan 0
-nan -nan 0
-nan -nan 0
-nan -nan 0
-nan -nan 0
-nan -nan 0
-nan -nan 0
-nan -nan 0
-nan -nan 0
-nan -nan 0
-nan -nan 0
-nan -nan 0
-nan -nan 0
-nan -nan 0
-nan -nan 0
-nan -nan 0
-nan -nan 0
-nan -nan 0
-nan -nan 0
-nan -nan 0
-nan -nan 0
-nan -nan 0
-nan -nan 0
-nan -nan 0
-nan -nan 0
-nan -nan 0
-nan -nan 0
-nan -nan 0
-nan -nan 0
-nan -nan 0
-nan -nan 0
-nan -nan 0
-nan -nan 0
-nan -nan 0
-nan -nan 0
-nan -nan 0
-nan -nan 0
-nan -nan 0
-nan -nan 0
-nan -nan 0
-nan -nan 0
-nan -nan 0
-nan -nan 0
-nan -nan 0
-nan -nan 0
-nan -nan 0
-nan -nan 0
-nan -nan 0
-nan -nan 0
-nan -nan 0
-nan -nan 0
-nan -nan 0
-nan -nan 0
-nan -nan 0
-nan -nan 0
-nan -nan 0
-nan -nan 0
-nan -nan 0
-nan -nan 0
-nan -nan 0
-nan -nan 0
-nan -nan 0
-nan -nan 0
-nan -nan 0
-nan -nan 0
-nan -nan 0
-nan -nan 0
-nan -nan 0
-nan -nan 0
-nan -nan 0
-nan -nan 0
-nan -nan 0
-nan -nan 0
-nan -nan 0
-nan -nan 0
-nan -nan 0
-nan -nan 0
-nan -nan 0
-nan -nan 0
-nan -nan 0
-nan -nan 0
-nan -nan 0
-nan -nan 0
-nan -nan 0
-nan -nan 0
-nan -nan 0
-nan -nan 0
-nan -nan 0
-nan -nan 0
-nan -nan 0
-nan -nan 0
-nan -nan 0
-nan -nan 0
-nan -nan 0
-nan -nan 0
-nan -nan 0
-nan -nan 0
-nan -nan 0
-nan -nan 0
-nan -nan 0
-nan -nan 0
-nan -nan 0
-nan -nan 0
-nan -nan 0
-nan -nan 0
-nan -nan 0
-nan -nan 0
-nan -nan 0
-nan -nan 0
-nan -nan 0
-nan -nan 0
-nan -nan 0
-nan -nan 0
-nan -nan 0
-nan -nan 0
-nan -nan 0
-nan -nan 0
-nan -nan 0
-nan -nan 0
-nan -nan 0
-nan -nan 0
-nan -nan 0
-nan -nan 0
-nan -nan 0
-nan -nan 0
-nan -nan 0
-nan -nan 0
-nan -nan 0
-nan -nan 0
-nan -nan 0
-nan -nan 0
-nan -nan 0
-nan -nan 0
-nan -nan 0
-nan -nan 0
-nan -nan 0
-nan -nan 0
-nan -nan 0
-nan -nan 0
-nan -nan 0
-nan -nan 0
-nan -nan 0
-nan -nan 0
-nan -nan 0
-nan -nan 0
-nan -nan 0
-nan -nan 0
-nan -nan 0
-nan -nan 0
-nan -nan 0
-nan -nan 0
-nan -nan 0
-nan -nan 0
-nan -nan 0
-nan -nan 0
-nan -nan 0
-nan -nan 0
-nan -nan 0
-nan -nan 0
-nan -nan 0
-nan -nan 0
-nan -nan 0
-nan -nan 0
-nan -nan 0
-nan -nan 0
-nan -nan 0
-nan -nan 0
-nan -nan 0
-nan -nan 0
-nan -nan 0
-nan -nan 0
-nan -nan 0
-nan -nan 0
-nan -nan 0
-nan -nan 0
-nan -nan 0
-nan -nan 0
-nan -nan 0
-nan -nan 0
-nan -nan 0
-nan -nan 0
-nan -nan 0
-nan -nan 0
-nan -nan 0
-nan -nan 0
-nan -nan 0
-nan -nan 0
-nan -nan 0
-nan -nan 0
-nan -nan 0
-nan -nan 0
-nan -nan 0
-nan -nan 0
-nan -nan 0
-nan -nan 0
-nan -nan 0
-nan -nan 0
-nan -nan 0
-nan -nan 0
-nan -nan 0
-nan -nan 0
-nan -nan 0
-nan -nan 0
-nan -nan 0
-nan -nan 0
-nan -nan 0
-nan -nan 0
-nan -nan 0
-nan -nan 0
-nan -nan 0
-nan -nan 0
-nan -nan 0
-nan -nan 0
-nan -nan 0
-nan -nan 0
-nan -nan 0
-nan -nan 0
-nan -nan 0
-nan -nan 0
-nan -nan 0
-nan -nan 0
-nan -nan 0
-nan -nan 0
-nan -nan 0
-nan -nan 0
-nan -nan 0
-nan -nan 0
-nan -nan 0
-nan -nan 0
-nan -nan 0
-nan -nan 0
-nan -nan 0
-nan -nan 0
-nan -nan 0
-nan -nan 0
-nan -nan 0
-nan -nan 0
-nan -nan 0
-nan -nan 0
-nan -nan 0
-nan -nan 0
-nan -nan 0
-nan -nan 0
-nan -nan 0
-nan -nan 0
-nan -nan 0
-nan -nan 0
-nan -nan 0
-nan -nan 0
-nan -nan 0
-nan -nan 0
-nan -nan 0
-nan -nan 0
-nan -nan 0
-nan -nan 0
-nan -nan 0
-nan -nan 0
-nan -nan 0
-nan -nan 0
-nan -nan 0
-nan -nan 0
-nan -nan 0
-nan -nan 0
-nan -nan 0
-nan -nan 0
-nan -nan 0
-nan -nan 0
-nan -nan 0
-nan -nan 0
-nan -nan 0
-nan -nan 0
-nan -nan 0
-nan -nan 0
-nan -nan 0
-nan -nan 0
-nan -nan 0
-nan -nan 0
-nan -nan 0
-nan -nan 0
-nan -nan 0
-nan -nan 0
-nan -nan 0
-nan -nan 0
-nan -nan 0
-nan -nan 0
-nan -nan 0
-nan -nan 0
-nan -nan 0
-nan -nan 0
-nan -nan 0
-nan -nan 0
-nan -nan 0
-nan -nan 0
-nan -nan 0
-nan -nan 0
-nan -nan 0
-nan -nan 0
-nan -nan 0
-nan -nan 0
-nan -nan 0
-nan -nan 0
-nan -nan 0
-nan -nan 0
-nan -nan 0
-nan -nan 0
-nan -nan 0
-nan -nan 0
-nan -nan 0
-nan -nan 0
-nan -nan 0
-nan -nan 0
-nan -nan 0
-nan -nan 0
-nan -nan 0
-nan -nan 0
-nan -nan 0
-nan -nan 0
-nan -nan 0
-nan -nan 0
-nan -nan 0
-nan -nan 0
-nan -nan 0
-nan -nan 0
-nan -nan 0
-nan -nan 0
-nan -nan 0
-nan -nan 0
-nan -nan 0
-nan -nan 0
-nan -nan 0
-nan -nan 0
-nan -nan 0
-nan -nan 0
-nan -nan 0
-nan -nan 0
-nan -nan 0
-nan -nan 0
-nan -nan 0
-nan -nan 0
-nan -nan 0
-nan -nan 0
-nan -nan 0
-nan -nan 0
-nan -nan 0
-nan -nan 0
-nan -nan 0
-nan -nan 0
-nan -nan 0
-nan -nan 0
-nan -nan 0
-nan -nan 0
-nan -nan 0
-nan -nan 0
-nan -nan 0
-nan -nan 0
-nan -nan 0
-nan -nan 0
-nan -nan 0
-nan -nan 0
-nan -nan 0
-nan -nan 0
-nan -nan 0
-nan -nan 0
-nan -nan 0
-nan -nan 0
-nan -nan 0
-nan -nan 0
-nan -nan 0
-nan -nan 0
-nan -nan 0
-nan -nan 0
-nan -nan 0
-nan -nan 0
-nan -nan 0
-nan -nan 0
-nan -nan 0
-nan -nan 0
-nan -nan 0
-nan -nan 0
-nan -nan 0
-nan -nan 0
-nan -nan 0
-nan -nan 0
-nan -nan 0
-nan -nan 0
-nan -nan 0
-nan -nan 0
-nan -nan 0
-nan -nan 0
-nan -nan 0
-nan -nan 0
-nan -nan 0
-nan -nan 0
-nan -nan 0
-nan -nan 0
-nan -nan 0
-nan -nan 0
-nan -nan 0
-nan -nan 0
-nan -nan 0
-nan -nan 0
-nan -nan 0
-nan -nan 0
-nan -nan 0
-nan -nan 0
-nan -nan 0
-nan -nan 0
-nan -nan 0
-nan -nan 0
-nan -nan 0
-nan -nan 0
-nan -nan 0
-nan -nan 0
-nan -nan 0
-nan -nan 0
-nan -nan 0
-nan -nan 0
-nan -nan 0
-nan -nan 0
-nan -nan 0
-nan -nan 0
-nan -nan 0
-nan -nan 0
-nan -nan 0
-nan -nan 0
-nan -nan 0
-nan -nan 0
-nan -nan 0
-nan -nan 0
-nan -nan 0
-nan -nan 0
-nan -nan 0
-nan -nan 0
-nan -nan 0
-nan -nan 0
-nan -nan 0
-nan -nan 0
-nan -nan 0
-nan -nan 0
-nan -nan 0
-nan -nan 0
-nan -nan 0
-nan -nan 0
-nan -nan 0
-nan -nan 0
-nan -nan 0
-nan -nan 0
-nan -nan 0
-nan -nan 0
-nan -nan 0
-nan -nan 0
-nan -nan 0
-nan -nan 0
-nan -nan 0
-nan -nan 0
-nan -nan 0
-nan -nan 0
-nan -nan 0
-nan -nan 0
-nan -nan 0
-nan -nan 0
-nan -nan 0
-nan -nan 0
-nan -nan 0
-nan -nan 0
-nan -nan 0
-nan -nan 0
-nan -nan 0
-nan -nan 0
-nan -nan 0
-nan -nan 0
-nan -nan 0
-nan -nan 0
-nan -nan 0
-nan -nan 0
-nan -nan 0
-nan -nan 0
-nan -nan 0
-nan -nan 0
-nan -nan 0
-nan -nan 0
-nan -nan 0
-nan -nan 0
-nan -nan 0
-nan -nan 0
-nan -nan 0
-nan -nan 0
-nan -nan 0
-nan -nan 0
-nan -nan 0
-nan -nan 0
-nan -nan 0
-nan -nan 0
-nan -nan 0
-nan -nan 0
-nan -nan 0
-nan -nan 0
-nan -nan 0
-nan -nan 0
-nan -nan 0
-nan -nan 0
-nan -nan 0
-nan -nan 0
-nan -nan 0
-nan -nan 0
-nan -nan 0
-nan -nan 0
-nan -nan 0
-nan -nan 0
-nan -nan 0
-nan -nan 0
-nan -nan 0
-nan -nan 0
-nan -nan 0
-nan -nan 0
-nan -nan 0
-nan -nan 0
-nan -nan 0
-nan -nan 0
-nan -nan 0
-nan -nan 0
-nan -nan 0
-nan -nan 0
-nan -nan 0
-nan -nan 0
-nan -nan 0
-nan -nan 0
-nan -nan 0
-nan -nan 0
-nan -nan 0
-nan -nan 0
-nan -nan 0
-nan -nan 0
-nan -nan 0
-nan -nan 0
-nan -nan 0
-nan -nan 0
-nan -nan 0
-nan -nan 0
-nan -nan 0
-nan -nan 0
-nan -nan 0
-nan -nan 0
-nan -nan 0
-nan -nan 0
-nan -nan 0
-nan -nan 0
-nan -nan 0
-nan -nan 0
-nan -nan 0
-nan -nan 0
-nan -nan 0
-nan -nan 0
-nan -nan 0
-nan -nan 0
-nan -nan 0
-nan -nan 0
-nan -nan 0
-nan -nan 0
-nan -nan 0
-nan -nan 0
-nan -nan 0
-nan -nan 0
-nan -nan 0
-nan -nan 0
-nan -nan 0
-nan -nan 0
-nan -nan 0
-nan -nan 0
-nan -nan 0
-nan -nan 0
-nan -nan 0
-nan -nan 0
-nan -nan 0
-nan -nan 0
-nan -nan 0
-nan -nan 0
-nan -nan 0
-nan -nan 0
-nan -nan 0
-nan -nan 0
-nan -nan 0
-nan -nan 0
-nan -nan 0
-nan -nan 0
-nan -nan 0
-nan -nan 0
-nan -nan 0
-nan -nan 0
-nan -nan 0
-nan -nan 0
-nan -nan 0
-nan -nan 0
-nan -nan 0
-nan -nan 0
-nan -nan 0
-nan -nan 0
-nan -nan 0
-nan -nan 0
-nan -nan 0
-nan -nan 0
-nan -nan 0
-nan -nan 0
-nan -nan 0
-nan -nan 0
-nan -nan 0
-nan -nan 0
-nan -nan 0
-nan -nan 0
-nan -nan 0
-nan -nan 0
-nan -nan 0
-nan -nan 0
-nan -nan 0
-nan -nan 0
-nan -nan 0
-nan -nan 0
-nan -nan 0
-nan -nan 0
-nan -nan 0
-nan -nan 0
-nan -nan 0
-nan -nan 0
-nan -nan 0
-nan -nan 0
-nan -nan 0
-nan -nan 0
-nan -nan 0
-nan -nan 0
-nan -nan 0
-nan -nan 0
-nan -nan 0
-nan -nan 0
-nan -nan 0
-nan -nan 0
-nan -nan 0
-nan -nan 0
-nan -nan 0
-nan -nan 0
-nan -nan 0
-nan -nan 0
-nan -nan 0
-nan -nan 0
-nan -nan 0
-nan -nan 0
-nan -nan 0
-nan -nan 0
-nan -nan 0
-nan -nan 0
-nan -nan 0
-nan -nan 0
-nan -nan 0
-nan -nan 0
-nan -nan 0
-nan -nan 0
-nan -nan 0
-nan -nan 0
-nan -nan 0
-nan -nan 0
-nan -nan 0
-nan -nan 0
-nan -nan 0
-nan -nan 0
-nan -nan 0
-nan -nan 0
-nan -nan 0
-nan -nan 0
-nan -nan 0
-nan -nan 0
-nan -nan 0
-nan -nan 0
-nan -nan 0
-nan -nan 0
-nan -nan 0
-nan -nan 0
-nan -nan 0
-nan -nan 0
-nan -nan 0
-nan -nan 0
-nan -nan 0
-nan -nan 0
-nan -nan 0
-nan -nan 0
-nan -nan 0
-nan -nan 0
-nan -nan 0
-nan -nan 0
-nan -nan 0
-nan -nan 0
-nan -nan 0
-nan -nan 0
-nan -nan 0
-nan -nan 0
-nan -nan 0
-nan -nan 0
-nan -nan 0
-nan -nan 0
-nan -nan 0
-nan -nan 0
-nan -nan 0
-nan -nan 0
-nan -nan 0
-nan -nan 0
-nan -nan 0
-nan -nan 0
-nan -nan 0
-nan -nan 0
-nan -nan 0
-nan -nan 0
-nan -nan 0
-nan -nan 0
-nan -nan 0
-nan -nan 0
-nan -nan 0
-nan -nan 0
-nan -nan 0
-nan -nan 0
-nan -nan 0
-nan -nan 0
-nan -nan 0
-nan -nan 0
-nan -nan 0
-nan -nan 0
-nan -nan 0
-nan -nan 0
-nan -nan 0
-nan -nan 0
-nan -nan 0
-nan -nan 0
-nan -nan 0
-nan -nan 0
-nan -nan 0
-nan -nan 0
-nan -nan 0
-nan -nan 0
-nan -nan 0
-nan -nan 0
-nan -nan 0
-nan -nan 0
-nan -nan 0
-nan -nan 0
-nan -nan 0
-nan -nan 0
-nan -nan 0
-nan -nan 0
-nan -nan 0
-nan -nan 0
-nan -nan 0
-nan -nan 0
-nan -nan 0
-nan -nan 0
-nan -nan 0
-nan -nan 0
-nan -nan 0
-nan -nan 0
-nan -nan 0
-nan -nan 0
-nan -nan 0
-nan -nan 0
-nan -nan 0
-nan -nan 0
-nan -nan 0
-nan -nan 0
-nan -nan 0
-nan -nan 0
-nan -nan 0
-nan -nan 0
-nan -nan 0
-nan -nan 0
-nan -nan 0
-nan -nan 0
-nan -nan 0
-nan -nan 0
-nan -nan 0
-nan -nan 0
-nan -nan 0
-nan -nan 0
-nan -nan 0
-nan -nan 0
-nan -nan 0
-nan -nan 0
-nan -nan 0
-nan -nan 0
-nan -nan 0
-nan -nan 0
-nan -nan 0
-nan -nan 0
-nan -nan 0
-nan -nan 0
-nan -nan 0
-nan -nan 0
-nan -nan 0
-nan -nan 0
-nan -nan 0
-nan -nan 0
-nan -nan 0
-nan -nan 0
-nan -nan 0
-nan -nan 0
-nan -nan 0
-nan -nan 0
-nan -nan 0
-nan -nan 0
-nan -nan 0
-nan -nan 0
-nan -nan 0
-nan -nan 0
-nan -nan 0
-nan -nan 0
-nan -nan 0
-nan -nan 0
-nan -nan 0
-nan -nan 0
-nan -nan 0
-nan -nan 0
-nan -nan 0
-nan -nan 0
-nan -nan 0
-nan -nan 0
-nan -nan 0
-nan -nan 0
-nan -nan 0
-nan -nan 0
-nan -nan 0
-nan -nan 0
-nan -nan 0
-nan -nan 0
-nan -nan 0
-nan -nan 0
-nan -nan 0
-nan -nan 0
-nan -nan 0
-nan -nan 0
-nan -nan 0
-nan -nan 0
-nan -nan 0
-nan -nan 0
-nan -nan 0
-nan -nan 0
-nan -nan 0
-nan -nan 0
-nan -nan 0
-nan -nan 0
-nan -nan 0
-nan -nan 0
-nan -nan 0
-nan -nan 0
-nan -nan 0
-nan -nan 0
-nan -nan 0
-nan -nan 0
-nan -nan 0
-nan -nan 0
-nan -nan 0
-nan -nan 0
-nan -nan 0
-nan -nan 0
-nan -nan 0
-nan -nan 0
-nan -nan 0
-nan -nan 0
-nan -nan 0
-nan -nan 0
-nan -nan 0
-nan -nan 0
-nan -nan 0
-nan -nan 0
-nan -nan 0
-nan -nan 0
-nan -nan 0
-nan -nan 0
-nan -nan 0
-nan -nan 0
-nan -nan 0
-nan -nan 0
-nan -nan 0
-nan -nan 0
-nan -nan 0
-nan -nan 0
-nan -nan 0
-nan -nan 0
-nan -nan 0
-nan -nan 0
-nan -nan 0
-nan -nan 0
-nan -nan 0
-nan -nan 0
-nan -nan 0
-nan -nan 0
-nan -nan 0
-nan -nan 0
-nan -nan 0
-nan -nan 0
-nan -nan 0
-nan -nan 0
-nan -nan 0
-nan -nan 0
-nan -nan 0
-nan -nan 0
-nan -nan 0
-nan -nan 0
-nan -nan 0
-nan -nan 0
-nan -nan 0
-nan -nan 0
-nan -nan 0
-nan -nan 0
-nan -nan 0
-nan -nan 0
-nan -nan 0
-nan -nan 0
-nan -nan 0
-nan -nan 0
-nan -nan 0
-nan -nan 0
-nan -nan 0
-nan -nan 0
-nan -nan 0
-nan -nan 0
-nan -nan 0
-nan -nan 0
-nan -nan 0
-nan -nan 0
-nan -nan 0
-nan -nan 0
-nan -nan 0
-nan -nan 0
-nan -nan 0
-nan -nan 0
-nan -nan 0
-nan -nan 0
-nan -nan 0
-nan -nan 0
-nan -nan 0
-nan -nan 0
-nan -nan 0
-nan -nan 0
-nan -nan 0
-nan -nan 0
-nan -nan 0
-nan -nan 0
-nan -nan 0
-nan -nan 0
-nan -nan 0
-nan -nan 0
-nan -nan 0
-nan -nan 0
-nan -nan 0
      </DataArray> 
      <DataArray type="Float64" NumberOfComponents="3" Name="MeshDisp" format="ascii">
0 0 0
0 0 0
0 0 0
1 0 0
1 0 0
0 0 0
0 0 0
0 0 0
0 0 0
0 0 0
0 0 0
0 0 0
0 0 0
0 0 0
0 0 0
0 0 0
0 0 0
0 0 0
0 0 0
0 0 0
0.08962741344119753 0 0
0.117699047506634 0 0
0.1413663626168305 0 0
0.1635853648104894 0 0
0.184911952865503 0 0
0.2056736985056344 0 0
0.2260381123418096 0 0
0.2461286061443332 0 0
0.266021857270303 0 0
0.2857691862394961 0 0
0.305407182659228 0 0
0.3249621695381415 0 0
0.3444532620717481 0 0
0.3638952017504641 0 0
0.3832986758774584 0 0
0.4026717831864248 0 0
0.4220209274041989 0 0
0.4413510543549789 0 0
0.4606660384233363 0 0
0.479968914968342 0 0
0.4992620919540837 0 0
0.5185474746305313 0 0
0.5378265857254889 0 0
0.5571006383670633 0 0
0.5763706072853205 0 0
0.595637273173249 0 0
0.6149012658093306 0 0
0.6341630916441219 0 0
0.6534231604372287 0 0
0.6726818028340702 0 0
0.6919392869792226 0 0
0.7111958298621411 0 0
0.7304516077862588 0 0
0.7497067637580249 0 0
0.7689614138411838 0 0
0.7882156524434218 0 0
0.8074695590293208 0 0
0.8267231965666174 0 0
0.8459766146155089 0 0
0.8652298576270713 0 0
0.8844829601762056 0 0
0.9037359509503557 0 0
0.9229888545526637 0 0
0.9422416948865066 0 0
0.9614944884338109 0 0
0.9807472519924308 0 0
0.9999999999999999 0 0
1 0 0
1 0 0
0.9999999999999999 0 0
1 0 0
0.9999999999999999 0 0
1 0 0
0.9999999999999999 0 0
1 0 0
1 0 0
0.9999999999999999 0 0
1 0 0
0.9999999999999999 0 0
1 0 0
0.980829545831842 0 0
0.9616591060336983 0 0
0.9424886957188643 0 0
0.9233183317377028 0 0
0.9041480319176579 0 0
0.8849778166089284 0 0
0.8658077114909585 0 0
0.8466377420725318 0 0
0.827467948318065 0 0
0.8082983669995301 0 0
0.7891290497389608 0 0
0.7699600615260616 0 0
0.7507914719003845 0 0
0.7316233795693543 0 0
0.7124558889088323 0 0
0.6932891484336126 0 0
0.6741233140576133 0 0
0.6549586161107007 0 0
0.6357952765497725 0 0
0.6166336475759013 0 0
0.5974740740106113 0 0
0.5783170721335019 0 0
0.5591632181344782 0 0
0.5400132182004249 0 0
0.5208679660866107 0 0
0.5017285602469183 0 0
0.4825963433232471 0 0
0.4634729854917539 0 0
0.4443605855785951 0 0
0.4252615586778666 0 0
0.4061789572129205 0 0
0.387116898567116 0 0
0.3680795993177832 0 0
0.3490731940016434 0 0
0.3301045841962126 0 0
0.3111823451757196 0 0
0.2923169995127018 0 0
0.2735212095058617 0 0
0.2548104770588167 0 0
0.236202819000014 0 0
0.2177194077333534 0 0
0.1993845507602878 0 0
0.18122224507324 0 0
0.1632559052680662 0 0
0.1455076995077583 0 0
0.1280116039154034 0 0
0.1108199966747574 0 0
0.09404228938520909 0 0
0.07787979022139523 0 0
0.06266381610657616 0 0
0.04862417923065607 0 0
0.03609417527149143 0 0
0.02524895405864797 0 0
0.01694283717576113 0 0
0.01066991835579901 0 0
0.006298048549941424 0 0
0.003425217879800591 0 0
0.001439695566421187 0 0
0 0 0
0 0 0
0 0 0
0 0 0
0 0 0
0 0 0
0 0 0
0 0 0
0 0 0
0 0 0
0 0 0
0 0 0
0 0 0
0 0 0
0 0 0
0 0 0
0 0 0
0 0 0
0.05681968867244119 0 0
0.06964523691709917 0 0
0.1725165630177962 0 0
0.8380954873710876 0 0
0.7603755500850968 0 0
0.6837057428990991 0 0
0.6070527622271359 0 0
0.5314243729310418 0 0
0.4548764686497183 0 0
0.3775857524419597 0 0
0.3017227533316797 0 0
0.0003587709305913151 0 0
0.2361449073362028 0 0
0.7984313357161342 0 0
0.7208232139670703 0 0
0.6437938867004311 0 0
0.5667382010877928 0 0
0.4896203783924414 0 0
0.4123551771790635 0 0
0.3347241135768744 0 0
0.03151906344875514 0 0
0.06645425848604473 0 0
0.9817228404662605 0 0
0.03863901835169287 0 0
0.06374980803006493 0 0
0.04097029206425261 0 0
0.06081363416227613 0 0
0.8761467747048661 0 0
0.04105101571523549 0 0
0.05766564738746519 0 0
0.07688301838732738 0 0
0.0721341605208225 0 0
0.09078781615466566 0 0
0.08519130761440499 0 0
0.1032785461645642 0 0
0.06825942047749686 0 0
0.02055662141151414 0 0
0.2269438458685438 0 0
0.09707137474400664 0 0
0.1148456188628914 0 0
0.8959864974724981 0 0
-0.0001628531856422614 0 0
0.1080494179623075 0 0
0.1257077990183238 0 0
0.0007309334544916254 0 0
-0.0007267533700154856 0 0
0.1328078845525044 0 0
0.1434928088418773 0 0
0.1186092768405903 0 0
0.101265028387606 0 0
0.9827822024346815 0 0
0.1511468672495917 0 0
0.1616438126817779 0 0
0.02308042499740171 0 0
0.02507255791144274 0 0
0.1696158934577081 0 0
0.1800420988661731 0 0
0.111458670217943 0 0
0.09453005093102182 0 0
0.1715567750984588 0 0
0.1902337242979566 0 0
0.1986017372685511 0 0
0.2087360609787292 0 0
0.2173270551937755 0 0
0.2273797421274608 0 0
0.2361005549753917 0 0
0.2461332333504975 0 0
0.2547830317623361 0 0
0.2650039893328694 0 0
0.2741086080774717 0 0
0.2840096074818153 0 0
0.2931685440553095 0 0
0.303032223234508 0 0
0.3122649229234317 0 0
0.322092787683233 0 0
0.3313835749709936 0 0
0.3411808463445803 0 0
0.35034039581332 0 0
0.3602742114608628 0 0
0.3695621650386937 0 0
0.3794245271600407 0 0
0.3888357412385025 0 0
0.3985917202119785 0 0
0.408035511172327 0 0
0.4177647882573469 0 0
0.4272260435757311 0 0
0.4369433472168354 0 0
0.446420573247405 0 0
0.4561281468522999 0 0
0.4656187713239695 0 0
0.4753189133321341 0 0
0.4848203470057171 0 0
0.4945158052710643 0 0
0.5040246993815698 0 0
0.5137152998496535 0 0
0.5232310366324524 0 0
0.5329170605992739 0 0
0.5424387926788599 0 0