<?xml version="1.0"?>
<VTKFile type="UnstructuredGrid">
  <UnstructuredGrid>
  <Piece NumberOfPoints="1224"  NumberOfCells="2290">
    <Points>
      <DataArray type="Float64" NumberOfComponents="3" format="ascii">
0 0 0
0.6 0 0
0.6 0.2 0
3 0.2 0
3 1 0
0 1 0
0.05454545454535233 0 0
0.1090909090906768 0 0
0.1636363636359771 0 0
0.2181818181812728 0 0
0.2727272727265793 0 0
0.3272727272720317 0 0
0.3818181818176247 0 0
0.4363636363632168 0 0
0.4909090909088285 0 0
0.5454545454544089 0 0
0.6 0.03999999999991203 0
0.6 0.07999999999979179 0
0.6 0.1199999999997886 0
0.6 0.1599999999998948 0
0.6510638297871261 0.2 0
0.7021276595742618 0.2 0
0.7531914893613819 0.2 0
0.8042553191485237 0.2 0
0.8553191489356438 0.2 0
0.9063829787228289 0.2 0
0.957446808509926 0.2 0
1.008510638297009 0.2 0
1.059574468084092 0.2 0
1.110638297871174 0.2 0
1.161702127658257 0.2 0
1.21276595744534 0.2 0
1.263829787232422 0.2 0
1.314893617019505 0.2 0
1.365957446806588 0.2 0
1.417021276593671 0.2 0
1.468085106380754 0.2 0
1.519148936167923 0.2 0
1.570212765955006 0.2 0
1.621276595742088 0.2 0
1.672340425529171 0.2 0
1.723404255316254 0.2 0
1.774468085103337 0.2 0
1.825531914890624 0.2 0
1.876595744677951 0.2 0
1.927659574465349 0.2 0
1.978723404252714 0.2 0
2.029787234040074 0.2 0
2.080851063827477 0.2 0
2.131914893614798 0.2 0
2.182978723402204 0.2 0
2.234042553189523 0.2 0
2.285106382976928 0.2 0
2.336170212764247 0.2 0
2.387234042551653 0.2 0
2.438297872338975 0.2 0
2.489361702126377 0.2 0
2.540425531913739 0.2 0
2.591489361701102 0.2 0
2.642553191488421 0.2 0
2.693617021275827 0.2 0
2.744680851063146 0.2 0
2.795744680850551 0.2 0
2.84680851063787 0.2 0
2.897872340425276 0.2 0
2.948936170212618 0.2 0
3 0.2533333333332341 0
3 0.3066666666664725 0
3 0.3599999999996274 0
3 0.413333333332804 0
3 0.4666666666659806 0
3 0.5199999999991571 0
3 0.5733333333323336 0
3 0.6266666666656895 0
3 0.6799999999991551 0
3 0.7333333333326146 0
3 0.7866666666660802 0
3 0.8399999999995775 0
3 0.8933333333330373 0
3 0.9466666666664969 0
2.949152542373491 1 0
2.898305084746983 1 0
2.847457627120474 1 0
2.796610169493702 1 0
2.745762711866469 1 0
2.694915254239208 1 0
2.644067796611963 1 0
2.593220338985156 1 0
2.542372881358647 1 0
2.491525423732018 1 0
2.44067796610481 1 0
2.389830508477549 1 0
2.338983050850287 1 0
2.288135593223026 1 0
2.237288135595765 1 0
2.186440677968504 1 0
2.135593220341243 1 0
2.084745762713982 1 0
2.033898305086721 1 0
1.983050847459614 1 0
1.932203389832729 1 0
1.881355932205844 1 0
1.830508474578958 1 0
1.779661016952073 1 0
1.728813559325189 1 0
1.677966101698303 1 0
1.627118644071418 1 0
1.576271186444533 1 0
1.525423728817648 1 0
1.474576271190575 1 0
1.423728813563314 1 0
1.372881355936053 1 0
1.322033898308791 1 0
1.27118644068153 1 0
1.220338983054269 1 0
1.169491525427008 1 0
1.118644067799747 1 0
1.067796610172485 1 0
1.016949152545224 1 0
0.9661016949179628 1 0
0.9152542372907018 1 0
0.8644067796634407 1 0
0.8135593220361792 1 0
0.7627118644089181 1 0
0.7118644067816566 1 0
0.661016949154396 1 0
0.6101694915271345 1 0
0.5593220338998739 1 0
0.5084745762726124 1 0
0.4576271186453518 1 0
0.4067796610180903 1 0
0.3559322033908292 1 0
0.3050847457635677 1 0
0.2542372881363066 1 0
0.2033898305090456 1 0
0.1525423728817841 1 0
0.101694915254523 1 0
0.05084745762726151 1 0
0 0.9473684210524125 0
0 0.8947368421048248 0
0 0.8421052631576025 0
0 0.7894736842105994 0
0 0.7368421052635962 0
0 0.6842105263165927 0
0 0.6315789473695894 0
0 0.5789473684225861 0
0 0.5263157894755828 0
0 0.4736842105282874 0
0 0.4210526315806998 0
0 0.3684210526331123 0
0 0.3157894736855248 0
0 0.2631578947379374 0
0 0.21052631579035 0
0 0.1578947368427625 0
0 0.1052631578951749 0
0 0.05263157894758741 0
0.4374856279758046 0.955462795473483 0
0.625531914893563 0.2394317949808221 0
0.7891616249544176 0.9557759867023439 0
2.570562443351098 0.9559758769411787 0
2.364406779663917 0.9559648099769389 0
2.161016949154874 0.9559648099769389 0
1.957627118646171 0.9559648099772646 0
1.756856606547665 0.9560078743553572 0
1.553415402058453 0.9561420672712786 0
1.347457627122422 0.95627738856474 0
1.144067796613377 0.9563034567995272 0
0.04146670856173688 0.5498854761242812 0
0.9828861012149002 0.2442383967812095 0
2.465390809289578 0.2421522008426663 0
2.259572257543314 0.243586373321511 0
2.055319178697841 0.24363095694403 0
1.851066099915384 0.2436741865527954 0
1.646810778591931 0.2437170671454607 0
1.442550972205278 0.2437587738062726 0
1.238275543433999 0.2442249255777628 0
0.5808319854219957 0.2417757800606361 0
0.6039807146029165 0.2785115072887754 0
2.951522810440164 0.5995349944823752 0
0.5591131416216563 0.2791940688436214 0
0.5817690965011905 0.3180386921514113 0
0.5363223429032008 0.3181181454258206 0
0.5590799034518541 0.3577335228902347 0
2.671507320584846 0.2416532643303031 0
0.5129751095268966 0.3576683284772433 0
0.5360042291720796 0.3976917483469583 0
0.5824744072527975 0.3977458985417416 0
0.5593202208963615 0.4382323507424581 0
0.6062221806132498 0.4382172989803606 0
0.5831398502988122 0.4790536480492864 0
0.630245509211025 0.4792447281197085 0
0.5373735766893435 0.4817209888486334 0
0.2780994584865757 0.9660670791366374 0
0.9407829849899363 0.9559852449915113 0
0.6069171020766708 0.5203953730037822 0
0.6544691944766102 0.5205851219036783 0
2.724115018794794 0.9563165682871465 0
0.04341732373162228 0.2894490564426765 0
0.6304562046384772 0.5622881188475496 0
0.6786259291441818 0.5621981517123112 0
0.03938236249337418 0.7091098825652095 0
0.2999999999993055 0.04723774929726795 0
0.7024556039582556 0.5200372393771872 0
0.726826368578132 0.562505099575485 0
0.6545296629344706 0.6041261864689124 0
0.6061411599039735 0.6041581669226386 0
2.954333097254252 0.4393531299125908 0
0.7512905139641642 0.5199435586712576 0
0.7757938242112172 0.5624873891767795 0
0.4902278874550028 0.3174350849704655 0
0.4661669324669476 0.3576870257641042 0
0.8003371868304782 0.5195844107098163 0
0.8251782158071723 0.5621174250913318 0
0.6300572939290072 0.6460588488486728 0
0.581677101888915 0.6462390077748084 0
0.7994632498085218 0.6067218912904607 0
0.850068894442807 0.6047738158182728 0
0.8747482025846163 0.5617915498272615 0
0.8998102571129438 0.6045430073239006 0
0.924588798996443 0.5614360364847856 0
0.9497125983499418 0.6046345614192383 0
0.9744389394813738 0.5613114208485291 0
0.9997656958801404 0.604758732930365 0
1.024028015453996 0.5597386087889248 0
1.050046148741532 0.6042836632406788 0
1.075213347289947 0.5607219500906248 0
1.100604808237692 0.6043040651294929 0
1.125727120818654 0.5598592244124957 0
1.151165990249003 0.6040638744783449 0
1.176319565514503 0.5595216793632644 0
1.201793840633129 0.6038781229769293 0
1.226960854257978 0.5600604284234054 0
1.252470704079807 0.6038664424080111 0
1.277198987313166 0.55874807111347 0
1.303148970446812 0.6035341865995129 0
1.328130525802366 0.5586520846649797 0
1.353966012915828 0.6034054551655909 0
1.379205474149696 0.558835304845746 0
1.404820923589671 0.6032503772964327 0
1.430092956912838 0.5587079795953892 0
1.455686300628245 0.6030926920218221 0
1.480963489515269 0.5580480170404921 0
1.506562983627252 0.6028436706904448 0
1.531847734917255 0.5577680566445021 0
1.557453558526421 0.6026435181305781 0
1.582745756648754 0.5575726351194972 0
1.608358176126191 0.6024617369905624 0
1.633656322435163 0.5573842056888257 0
1.659277805706528 0.6022873884346892 0
1.684577462424181 0.5572075399874397 0
1.710203504633815 0.6021111834258887 0
1.735506494091908 0.5570246051384745 0
1.761134606493805 0.6019307913070558 0
1.786441498808711 0.5568475628142857 0
1.812072359676459 0.6017522495250318 0
1.837381834584306 0.5566653603575672 0
1.863017119880456 0.601574020443024 0
1.888326681794851 0.5564884669211013 0
1.913963858781491 0.601395113412113 0
1.939274704592935 0.5563067813822595 0
1.964908406083961 0.6012129143420911 0
1.990224566339525 0.5561292537946573 0
2.015859329864652 0.601032757987411 0
2.041177190815608 0.5559477304122714 0
2.066818109147928 0.600855564813206 0
2.09213259478423 0.5557710179709322 0
2.117774443326183 0.6006760179252703 0
2.143088896138059 0.5555900146741853 0
2.168729305797513 0.6004921726308964 0
2.194045774061603 0.5554125217101814 0
2.219686577151481 0.6003111949874665 0
2.245003702950199 0.5552312296013228 0
2.270641766736839 0.6001298880828497 0
2.295962173634055 0.5550546947866846 0
2.321601310982481 0.599950595338254 0
2.346923922781879 0.5548708301001631 0
2.372568004594504 0.5997713467128002 0
2.397895756972162 0.5547000681173012 0
2.423546697517365 0.5996004731097838 0
2.448884659670238 0.5545095609010697 0
2.474538141419978 0.5994220729206983 0
2.499902931415869 0.5543494429014709 0
2.525546234724433 0.5993228147833797 0
2.550973655834774 0.5541346321759457 0
2.576685338327378 0.5992395038842441 0
2.602182482443039 0.5540180644105763 0
2.958944511946492 0.7598964409357507 0
2.628014314012249 0.5990918128353608 0
0.4429170888396284 0.3159793431387367 0
0.4184631156771032 0.357715436029677 0
0.3946070818022522 0.3157219358498637 0
0.3697276561976696 0.3576135465858128 0
2.449044355814981 0.643990885448769 0
2.24531935830005 0.6444881680698032 0
1.024857369602972 0.6487487015028032 0
2.041498164113345 0.6452136474256573 0
1.837701628146142 0.6459229900926835 0
0.3455853078837237 0.3150377509381005 0
0.3204780172155196 0.3574251905568473 0
0.3449438693484468 0.4002519798591844 0
1.633970683060678 0.6466170330762969 0
1.227333380683899 0.6479317947648683 0
1.430444030483603 0.6473399689389928 0
0.875196942148915 0.6483605753517908 0
0.6057010339261732 0.6883083412871458 0
0.5571396249147901 0.6885103796531055 0
2.653543252321963 0.5527758280498023 0
1.099471497978971 0.5148848291986879 0
2.602427017093663 0.6438096025956825 0
2.653851606946175 0.6437140715169269 0
1.353138019780104 0.5138574114565649 0
1.556762689169365 0.5115839513085039 0
1.760509743411542 0.5109012431757174 0
1.964341412665395 0.510388685431229 0
0.2953909602266698 0.4001745965167012 0
[...]
    <PointData>
      <DataArray type="Float64" NumberOfComponents="3" Name="Velocity" format="ascii">
3.000000019853879 0 0
0 0 0
0 0 0
3.213633803174738 0 0
3.214790163455889 0 0
3.000000000000465 0 0
2.999999931054068 0 0
3.000000498431318 0 0
2.999997858525901 0 0
3.000001903224329 0 0
3.000049833630982 0 0
2.999500266943411 0 0
3.000743218843182 0 0
3.024875267638629 0 0
2.860589352641703 0 0
1.623826763190111 0 0
0 0.01418494377797691 0
0 0.007676573596886163 0
0 0.07850804925093224 0
0 0.2208437261476758 0
1.795580505094068 0 0
2.535066258219066 0 0
2.851252948819147 0 0
2.967094706816808 0 0
2.996382504194371 0 0
3.000977609758587 0 0
3.000350180019731 0 0
2.999947178338223 0 0
2.999976427981959 0 0
3.000007156984072 0 0
3.000000180363168 0 0
2.999999463080934 0 0
3.000000137367746 0 0
3.000000004439234 0 0
2.999999986975541 0 0
3.000000004772191 0 0
2.999999998906303 0 0
3.000000000185687 0 0
2.999999999976442 0 0
3.00000000000153 0 0
3.000000000000472 0 0
2.999999999999678 0 0
3.000000000000133 0 0
2.999999999999958 0 0
3.000000000000023 0 0
2.999999999999925 0 0
3.000000000000226 0 0
2.999999999999455 0 0
3.000000000001182 0 0
2.999999999998824 0 0
2.99999999999345 0 0
3.000000000034176 0 0
2.999999999969581 0 0
2.999999999719907 0 0
3.000000001172134 0 0
2.999999997217079 0 0
3.000000011071065 0 0
2.999999945811121 0 0
3.000000180403227 0 0
3.000000002911051 0 0
2.999996528985589 0 0
3.000018081680386 0 0
3.000007461551812 0 0
2.999529555194695 0 0
3.001056520519855 0 0
3.036851727143752 0 0
3.214993859160696 0.0008179949312821562 0
3.204585500579979 5.448450590846566e-05 0
3.205668085279664 0.0002353333766705868 0
3.205463433197516 -0.0001212413147448259 0
3.207768874422147 -0.0002508648239209848 0
3.210024970130093 -0.000169069777920836 0
3.20794715170232 0.0001005140091410986 0
3.207219040762512 -0.0003514633016193074 0
3.21087234186782 3.45452296527312e-06 0
3.208746223929348 0.0001624885444666943 0
3.210055627803601 0.000131846041427504 0
3.206699383704018 7.574095868256056e-07 0
3.205059497217758 -0.0009870470290279556 0
3.216632845120693 -0.0007238825255127683 0
3.032699756462866 0 0
3.001365609695421 0 0
2.999599538696117 0 0
3.000002940883136 0 0
3.000013192356909 0 0
2.999997362763211 0 0
2.99999999462529 0 0
3.000000128650545 0 0
2.999999965789642 0 0
3.000000006613785 0 0
2.999999998034305 0 0
3.000000000832298 0 0
2.99999999987021 0 0
2.999999999954327 0 0
3.000000000019123 0 0
3.000000000002412 0 0
2.999999999996449 0 0
3.000000000001074 0 0
2.99999999999999 0 0
2.999999999999844 0 0
3.000000000000099 0 0
2.999999999999959 0 0
3.000000000000012 0 0
2.999999999999998 0 0
3 0 0
2.999999999999999 0 0
3.000000000000003 0 0
2.999999999999995 0 0
2.999999999999992 0 0
3.000000000000041 0 0
2.999999999999992 0 0
2.999999999999821 0 0
3.0000000000002 0 0
3.000000000000484 0 0
2.999999999999107 0 0
2.999999999999149 0 0
3.000000000003093 0 0
3.000000000002151 0 0
2.999999999990557 0 0
2.999999999991141 0 0
3.000000000015679 0 0
3.000000000033146 0 0
3.000000000019076 0 0
2.99999999999357 0 0
2.999999999985654 0 0
2.999999999991914 0 0
2.999999999994081 0 0
2.999999999996925 0 0
3.000000000000882 0 0
3.000000000002834 0 0
3.000000000004455 0 0
2.999999999997456 0 0
3.000000000001663 0 0
2.999999999999882 0 0
2.999999999999765 0 0
3.000000000000405 0 0
2.999999999999866 0 0
2.99999999999991 0 0
3.000000000000791 0 0
2.999999999997892 0 0
2.999999999998654 0 0
3.000000000022893 0 0
2.999999999977006 0 0
3.000000000080819 0 0
2.999999999943234 0 0
2.999999999966009 0 0
3.000000000087462 0 0
2.999999999975183 0 0
2.99999999870013 0 0
2.999999995781578 0 0
3.000000005601357 0 0
3.000000013859388 0 0
3.00000001547322 0 0
3.000000040188402 0 0
3.000000051571092 0 0
3.000000039670992 0 0
2.999999999990711 -4.225430304325969e-12 0
1.86743475790612 0.3283140021892162 0
2.999999999982278 2.686317752995351e-11 0
3.0000000048501 -4.15757187059693e-09 0
2.999999999837065 -6.804109317316212e-12 0
3.000000000003973 5.886837448876303e-13 0
2.999999999999913 -4.002452848290439e-14 0
3.000000000000004 -5.741738159240253e-15 0
3.000000000000015 -2.942548055987892e-15 0
3.000000000000296 2.437426687012167e-14 0
2.999999999999544 6.440620856802472e-13 0
2.999999999801449 9.160987997294619e-11 0
3.000042760899776 -1.85129278228474e-05 0
3.000000005429171 -7.945678824535035e-12 0
2.999999999960205 6.328934337125731e-13 0
3.000000000000397 6.214573323837106e-14 0
2.999999999999969 2.501692689782921e-14 0
2.999999999990416 1.592331982685373e-13 0
2.999999997041778 9.871884783655728e-11 0
3.00000000204275 -4.053842885411798e-09 0
2.059493566748479 0.3356891375115763 0
2.563271319092357 0.263687208534401 0
3.046991756368473 -9.731275201484679e-05 0
2.749261209936232 0.1391684495775399 0
2.898436804732503 0.0857251582964281 0
2.966107818890011 0.02474059638348486 0
2.988664158289543 0.01234862695320485 0
2.99999806288746 1.698584077552544e-08 0
2.999184603322604 0.001352414940829886 0
3.000073587355708 0.0003844094831794124 0
2.998363040925392 0.003100703002314835 0
3.000281932187984 -0.0002113102371158197 0
3.000242805850146 -6.377440117126388e-05 0
3.000095136337441 -0.0001700384387383383 0
3.000143584946016 -0.0003149964421543369 0
3.000012734568462 -4.298123605680324e-05 0
2.999999999998352 5.487610648169427e-13 0
3.000000000003077 1.16893691211371e-12 0
2.99999852530299 -1.494573689754863e-05 0
3.000011822180728 -5.930352247202448e-05 0
3.000002873334871 -5.373454157611487e-07 0
2.999999995865263 -1.999998857094012e-10 0
2.999995757159009 1.524360303644478e-05 0
2.999998683876409 1.408858763242085e-05 0
3.000000000004769 -2.170909070577697e-12 0
2.999969495965305 3.961844042543125e-06 0
3.000003809938334 -6.788370220055655e-05 0
3.000001121938888 1.453860686781495e-05 0
2.99999930290977 3.285761908632364e-06 0
2.999999902885512 6.300491163312011e-07 0
3.056698678627349 -0.0001891067047459419 0
2.999990455515023 -3.623214931184724e-05 0
3.00000371834277 1.15104898741602e-05 0
2.998603374869756 0.001589224273471019 0
3.000704094352202 -0.0003588731484154136 0
2.999991201165554 -1.012657718720181e-06 0
3.00000380991965 5.658956450413262e-06 0
3.000000176159391 -9.861650351313762e-07 0
3.000000197811722 -6.583476452754448e-07 0
2.999999931974728 -4.158357073911061e-07 0
2.999999622001912 -9.621336549301838e-07 0
3.000002029009386 7.633102185413867e-07 0
2.999999375174863 -6.736131901620388e-07 0
3.00000003900702 -1.23548874515919e-06 0
2.999999644782028 -2.391633602269577e-08 0
2.999999082997642 -7.109836287462837e-07 0
3.000000094494059 1.887488033719472e-07 0
2.999999646388591 2.493331703295405e-07 0
3.000000138524772 2.620633370548852e-08 0
3.000000176395428 1.875226092687545e-07 0
2.99999999318594 -5.49185867697428e-08 0
3.000000090164819 -7.345959332597731e-08 0
2.999999973634171 -7.343656375736589e-10 0
2.999999987994129 -2.891282500783493e-08 0
2.999999998258882 1.220324789086996e-08 0
2.999999980038548 1.708831684641612e-08 0
3.000000004995685 -3.33199154827051e-09 0
3.000000004719447 -7.313895571633941e-11 0
2.99999999966061 -7.042560753945668e-10 0
3.000000001606862 -1.854105915056077e-09 0
2.999999999323057 6.530799660303125e-10 0
2.999999998848249 7.483800984621366e-10 0
3.000000000329169 -2.151510589069459e-10 0
3.000000000376778 -1.912464616148688e-10 0
2.999999999924297 4.306402701219758e-11 0
2.99999999990169 4.294615090940342e-11 0
3.000000000005325 -5.105451676918055e-12 0
3.000000000024032 -9.942084841540852e-12 0
3.000000000003529 -5.625040096110601e-14 0
2.999999999994112 2.4833159981036e-12 0
2.999999999997986 2.31809716366478e-13 0
3.000000000001388 -6.423974856482057e-13 0
3.000000000000731 -8.548336216036773e-14 0
2.999999999999707 1.652326925434683e-13 0
2.999999999999763 2.519641711497471e-14 0
3.000000000000058 -4.331241891773324e-14 0
3.000000000000079 -5.782462768046918e-15 0
2.999999999999984 1.188705351901488e-14 0
2.999999999999977 9.124360967665016e-16 0
3.000000000000006 -2.096961447064692e-15 0
2.999999999999991 -3.034674285183215e-15 0
3.000000000000004 -6.688552353667016e-15 0
3.00000000000005 1.911791807663584e-14 0
2.999999999999943 2.506274351905269e-14 0
2.999999999999904 -6.072885242871901e-14 0
3.000000000000188 -5.385767041941175e-14 0
3.000000000000056 1.189784492052333e-13 0
2.999999999999551 8.360777250696238e-14 0
3.000000000000458 -1.322160885994999e-13 0
3.000000000000756 -1.068162657864035e-13 0
2.999999999997343 -5.447271968474534e-16 0
3.000000000000563 1.844747548382313e-13 0
3.000000000007488 2.657507654418896e-13 0
2.999999999990141 -4.787364842170977e-13 0
2.9999999999949 -2.577350296909424e-13 0
3.000000000028436 9.726878037791508e-13 0
2.99999999995985 -5.809401261946215e-13 0
3.000000000009319 -7.379903880061348e-13 0
3.000000000103303 1.634064666197155e-12 0
2.999999999742817 -1.729800707674625e-12 0
3.000000000239883 -1.75093187274843e-12 0
3.000000000390185 5.733177438786382e-12 0
2.999999998306999 8.869742918722493e-12 0
3.000000000986685 -1.640112307216331e-11 0
3.000000005289625 -5.512649149131985e-11 0
2.9999999967302 -3.064085673095646e-11 0
2.999999979686946 2.335513990987676e-10 0
2.999999990118412 1.51430780326649e-09 0
3.000000074704618 -5.477832814213672e-10 0
3.000000138858151 -6.523002670009854e-09 0
3.066114202554029 0.0001298904023850965 0
2.999999938894371 -1.382601977666049e-09 0
3.001086887483106 -0.0003803676488886572 0
3.000041508676528 -5.564793845342854e-05 0
3.000042121499938 -4.072042372135834e-05 0
2.999955277651473 1.525565789936349e-05 0
3.000000000964469 3.196742239834985e-11 0
3.000000000030012 6.732347055670583e-13 0
3.000000017017782 -2.738600545522712e-08 0
2.999999999999178 -2.474117129601887e-13 0
3.000000000000029 2.830491742261404e-15 0
2.999957355979471 1.194164988751598e-05 0
3.000003663422596 3.43591531071178e-07 0
3.000002541484539 9.241002636935935e-07 0
3.000000000001651 -4.401361842995726e-13 0
3.000000000467802 -3.250491843213452e-09 0
2.999999999912178 5.564600787197558e-11 0
2.99999987016129 -5.67926225533543e-09 0
2.999999999736986 2.555573866563791e-08 0
2.999999961052609 1.029974770632858e-07 0
2.99999918151291 -9.76127098021254e-09 0
2.999999852682918 4.035832904188046e-07 0
3.000000134862972 5.396917191086874e-09 0
2.999999201753391 7.55121866229582e-09 0
3.000000002822134 -1.808281155651541e-09 0
3.000000000044492 -1.175330153578722e-11 0
3.00000000000021 -4.096536833668865e-14 0
2.999999999999996 5.990285847729204e-14 0
3.000001437609985 -7.026225886171202e-07 0
3.00000102285697 -6.736853268833472e-07 0
3.000000000005261 1.03951980807695e-14 0
3.000000000299258 -7.457210728120551e-12 0
3.000000075270348 -1.478303425245063e-09 0
2.999979220356911 -0.000173385545792109 0
3.000003222901555 1.723234467060951e-08 0
3.000000023779382 1.63466081781417e-08 0
2.999998309866032 -4.87838063453164e-08 0
2.99999999011709 3.774823875505782e-08 0
2.999999993390381 6.995102341345307e-08 0
3.000000003152521 -6.908047617049084e-10 0
2.999999963126701 6.88317409561265e-08 0
3.000000009425006 -1.146047307096812e-08 0
3.000000002918819 8.792440822180928e-09 0
3.000000002166671 -5.359437071599437e-09 0
3.00000001418179 -1.200367129889598e-08 0
2.99999999687702 1.941422219521015e-09 0
3.000000000065459 -3.818601687909656e-09 0
3.000000000006724 1.078841743640826e-09 0
2.999999996801673 2.467421931982612e-09 0
1.030751400626972 0.1001036644895126 0
3.001198553553555 -0.0003364167742334065 0
3.000000000621257 -6.661421085192271e-10 0
3.000007438493768 -1.528241605890356e-06 0
2.999791350228854 -1.788157035918204e-05 0
2.999999727712333 4.094172184281155e-08 0
2.992563196798184 0.005538578839411764 0
3.000000001007614 -1.269807588893462e-10 0
2.999999265600831 9.092018407686578e-09 0
3.000000155487289 -2.317279777313496e-09 0
3.000000017910847 -6.906150977915469e-09 0
3.000009678618656 -3.32314463985565e-07 0
2.772182254869686 0.07837588570992754 0
3.000000003163928 -1.122331850586147e-08 0
2.999996067601014 1.130263348748272e-08 0
3.000000000323495 -1.933554578927685e-10 0
2.999999999364978 1.536989908608812e-09 0
2.999986284481638 2.364610522098239e-06 0
3.000006682420578 -1.702169640190695e-06 0
2.999999999997566 1.561846148290794e-12 0
3.000000000014031 1.021811552010332e-10 0
2.999999999998757 -6.934838767613882e-13 0
2.999999999999974 6.700672809096154e-15 0
3.000000000000154 -3.859302439613006e-14 0
3.000000000003971 -9.633935145010505e-13 0
3.000000000006442 -5.73512508141741e-13 0
2.999999999999988 7.478679635857126e-14 0
2.999999999895851 1.831792387095014e-11 0
2.99999999981268 4.602117588783634e-12 0
2.999999999999509 7.655196533787261e-15 0
3.00000185007921 1.312075242007473e-07 0
2.999999965631666 1.481562475770116e-09 0
3.00000000009973 2.162260618600102e-10 0
2.999999999999093 1.82299531877426e-13 0
2.999999999999901 5.388229100177598e-15 0
3.00000000382099 8.190337176434802e-11 0
3.000000000002319 -1.821920891549343e-12 0
2.999999999999521 -1.79192534119782e-13 0
2.999999999996054 -1.012897322203754e-12 0
3 -1.264375734686513e-16 0
3.000000000000013 -2.856954989249731e-14 0
2.999999999999591 -4.863872072501408e-13 0
2.999999995174355 1.066609036801363e-08 0
3.000000000000578 9.903900709859797e-14 0
3.000000000000006 8.697874970944155e-15 0
3.000000000003009 -7.172618219614364e-13 0
3.000000000492937 -1.680741993849518e-10 0
2.999999999753418 3.518217760760651e-12 0
2.999999999957152 -6.21463264676009e-13 0
3.000000052751964 -5.470346717160339e-08 0
2.999999996603597 7.341872552248936e-09 0
3.000000017264751 4.433146254022069e-10 0
2.999823463741 5.413107099520367e-06 0
3.009098828322895 -0.0001115550380051108 0
3.000000005391186 -1.030479870965762e-10 0
2.999999644668621 6.089603535513748e-08 0
3.00000000078637 -6.471091909701522e-10 0
2.995607916620655 0.008536975590998632 0
2.999999988849266 2.303642026659437e-08 0
2.999999999664532 2.073764219184847e-10 0
2.999999996596205 -9.773334646823525e-11 0
2.999999998577449 2.035768970487455e-09 0
3.000018072879641 -1.107690560034717e-07 0
3.000000031656457 -1.227930239823824e-08 0
3.000000063934409 -8.386761755536494e-10 0
2.999999998006437 1.885307486102461e-09 0
2.99999999999939 7.059373669208621e-11 0
2.999999916182954 6.588218655123056e-08 0
2.999998770604275 1.419151022655833e-06 0
3.000000000001902 1.118909531221378e-10 0
3.000002038802675 2.559596022666562e-07 0
3.000022164856528 -4.127127613720282e-06 0
3.000001519711075 -6.919550106807655e-07 0
2.999998292136708 3.947469738062954e-07 0
3.00000888493247 1.453258075121098e-07 0
2.999999984375068 -8.080269863513752e-07 0
3.057706049420506 0.0005149507117128651 0
3.043875751242204 -0.0006024844152304369 0
3.000000647437244 -5.063380142196581e-07 0
3.000000000039592 -6.671431601869608e-11 0
2.999961784651079 -8.45658233718997e-05 0
3.000148933161551 -0.0001195422122792753 0
2.999987645115088 -0.0002329742900646384 0
3.000017085817561 3.226180987271665e-07 0
2.999999984684236 -9.883875185260023e-07 0
2.623054452780942 0.1280521144480649 0
3.000001544559969 -2.522839604779107e-07 0
3.000000036331367 -3.576989045428503e-10 0
3.000000011045795 -3.074894849607231e-09 0
3.000000013003926 -5.15725223202002e-09 0
2.99999866032411 3.047251206589844e-07 0
2.999999999965271 4.563079820453433e-12 0
3.000672780997628 0.0001393357306023259 0
3.000188762355464 -0.0003752343715700903 0
3.000245780169215 0.003754058661112278 0
2.999859145897363 7.114217309326337e-06 0
2.999984599552353 -5.295699958772954e-07 0
3.000000000009228 7.359499255560495e-12 0
3.000000000122695 -1.783063490199868e-11 0
3.000000128704546 -6.466409233928243e-09 0
2.999999988935742 7.470482272460249e-10 0
2.999999979632992 6.573634536483103e-10 0
2.999999998000672 1.668277059698276e-10 0
3.000000005259879 -1.923300692409269e-10 0
3.000000000428703 -7.507124522453221e-11 0
2.999999998293434 3.891913794774296e-11 0
3.000000000469242 2.622305370110903e-11 0
3.000000000271292 -1.552594943771931e-11 0
2.999999999802947 1.574771407122735e-13 0
3.000000000070185 7.964832695435419e-12 0
2.999999999988454 -7.523216931271776e-12 0
2.999999999977851 -1.029439528275584e-12 0
3.000000000021465 3.606190637095322e-12 0
2.999999999988722 -4.653744400337804e-13 0
2.999999999998894 -6.950853296106576e-13 0
3.000000000008721 -6.273261769902173e-14 0
2.999999999995997 7.490924715407734e-14 0
2.999999999997711 3.620022523772804e-13 0
3.000000000002304 -1.254928417173839e-13 0
2.999999999999861 -2.882092150094153e-13 0
2.999999999999323 1.622831511391514e-13 0
3.000000000000416 1.222092158303737e-13 0
3.000000000000071 -1.278730472207832e-13 0
2.999999999999779 -9.725453049948022e-15 0
3.000000000000041 7.225015061108617e-14 0
3.000000000000072 -2.859160108263833e-14 0
2.999999999999976 -2.992843545365835e-14 0
2.999999999999988 2.739687522168932e-14 0
3.000000000000002 7.830892929504747e-15 0
2.999999999999997 -1.42487459009633e-14 0
2.999999999999997 2.81678103948616e-16 0
3.000000000000019 -7.439198355528735e-16 0
3.000000000000008 -7.222217711895527e-15 0
2.99999999999995 2.108082929649462e-14 0
2.999999999999987 1.301252410079914e-14 0
3.000000000000097 -5.321085885628908e-14 0
2.999999999999977 -7.938264960884967e-15 0
2.999999999999996 5.284202488204684e-14 0
3.000000000000159 -5.869211570489631e-14 0
2.999999999999459 1.793713941118416e-13 0
2.999999999999796 2.199218301866759e-13 0
3.000000000001275 -9.679074755929142e-13 0
2.999999999999428 -2.553473020480284e-13 0
3.000000000000668 1.783597259465081e-12 0
3.000000000002036 -5.36725051491272e-13 0
2.999999999991664 8.074776843676305e-13 0
3.00000000000129 2.184691078770436e-12 0
3.000000000004861 -1.094157859967611e-11 0
2.999999999983765 -5.420371097555135e-13 0
3.000000000055811 1.386758593712909e-11 0
3.000000000016403 -9.363039329198016e-12 0
2.999999999888252 3.343004635159279e-11 0
3.000000000054175 1.221875272394196e-11 0
2.999999999860607 -9.183738569603536e-11 0
2.999999999892788 1.640492516038982e-11 0
3.000000000551171 -1.174432847693457e-11 0
2.999999999923165 -5.841288739412829e-11 0
2.999999999901315 2.869478036728365e-10 0
3.000000000419889 4.552311710617367e-11 0
2.999999998265986 -4.682774133682998e-10 0
2.99999999997799 1.886626112543668e-10 0
3.000000001240298 -6.353802881441729e-10 0
2.999999998802112 -3.899022472413198e-10 0
3.00000000510522 2.725285272253837e-09 0
2.999999999436592 -6.038505480385774e-10 0
3.000000001352984 2.560845779121336e-09 0
3.000000002377779 1.4737339028176e-09 0
2.999999992401837 -6.398231415933589e-09 0
3.000000003534117 3.087784915002066e-09 0
2.999999988710946 -1.522081202360086e-08 0
3.000000001973836 1.165309262947442e-09 0
3.000016410692306 -4.316235089485449e-07 0
2.999878811756963 -3.832756741464302e-06 0
3.000000004555443 -6.830176818399053e-09 0
2.999999994944749 2.83337756524987e-09 0
3.000031907774872 -4.259373806138366e-06 0
2.999892423321223 1.503981307987889e-05 0
2.999726153753217 8.366750968341559e-06 0
2.999999991042289 -1.514681851546352e-08 0
3.000000001123407 -1.578983367173228e-09 0
3.000000019861333 4.823980691507348e-08 0
3.000000214241712 -1.940415860976371e-08 0
2.999632139707633 3.151861755518065e-06 0
2.999865105898208 -5.93032710159786e-06 0
2.999727320505367 3.311598063965439e-06 0
2.999710522984957 -7.542118960078799e-07 0
3.000002130584943 -1.283691826600558e-06 0
2.999898213940555 4.533636170946126e-06 0
3.000021082512945 -3.009394785405924e-07 0
2.999998717680727 3.790892466949529e-06 0
3.000010609678339 -7.580793725004851e-07 0
3.000022163719953 2.965248257335829e-07 0
3.000001485139559 -3.923083850203489e-08 0
2.999791078137249 -8.615788085961809e-07 0
2.999998507702182 -7.15553959689805e-08 0
2.999999138129146 7.231635145747662e-10 0
3.000000241973094 -3.168732551258658e-07 0
3.000001415108058 -7.031018194040718e-07 0
2.999999998753315 -9.583033323762019e-10 0
2.999999999066954 -5.98393453844532e-10 0
3.000000150220332 -1.523548480298817e-08 0
3.0000000000003 -5.567298090708247e-15 0
2.246055474551138 -0.005782991155605443 0
2.999999972603793 1.65371434027829e-08 0
3.00000015880566 1.708150184485928e-09 0