<?xml version="1.0"?>
<VTKFile type="UnstructuredGrid">
  <UnstructuredGrid>
  <Piece NumberOfPoints="1224"  NumberOfCells="2290">
    <Points>
      <DataArray type="Float64" NumberOfComponents="3" format="ascii">
0 0 0
0.6 0 0
0.6 0.2 0
3 0.2 0
3 1 0
0 1 0
0.05454545454535233 0 0
0.1090909090906768 0 0
0.1636363636359771 0 0
0.2181818181812728 0 0
0.2727272727265793 0 0
0.3272727272720317 0 0
0.3818181818176247 0 0
0.4363636363632168 0 0
0.4909090909088285 0 0
0.5454545454544089 0 0
0.6 0.03999999999991203 0
0.6 0.07999999999979179 0
0.6 0.1199999999997886 0
0.6 0.1599999999998948 0
0.6510638297871261 0.2 0
0.7021276595742618 0.2 0
0.7531914893613819 0.2 0
0.8042553191485237 0.2 0
0.8553191489356438 0.2 0
0.9063829787228289 0.2 0
0.957446808509926 0.2 0
1.008510638297009 0.2 0
1.059574468084092 0.2 0
1.110638297871174 0.2 0
1.161702127658257 0.2 0
1.21276595744534 0.2 0
1.263829787232422 0.2 0
1.314893617019505 0.2 0
1.365957446806588 0.2 0
1.417021276593671 0.2 0
1.468085106380754 0.2 0
1.519148936167923 0.2 0
1.570212765955006 0.2 0
1.621276595742088 0.2 0
1.672340425529171 0.2 0
1.723404255316254 0.2 0
1.774468085103337 0.2 0
1.825531914890624 0.2 0
1.876595744677951 0.2 0
1.927659574465349 0.2 0
1.978723404252714 0.2 0
2.029787234040074 0.2 0
2.080851063827477 0.2 0
2.131914893614798 0.2 0
2.182978723402204 0.2 0
2.234042553189523 0.2 0
2.285106382976928 0.2 0
2.336170212764247 0.2 0
2.387234042551653 0.2 0
2.438297872338975 0.2 0
2.489361702126377 0.2 0
2.540425531913739 0.2 0
2.591489361701102 0.2 0
2.642553191488421 0.2 0
2.693617021275827 0.2 0
2.744680851063146 0.2 0
2.795744680850551 0.2 0
2.84680851063787 0.2 0
2.897872340425276 0.2 0
2.948936170212618 0.2 0
3 0.2533333333332341 0
3 0.3066666666664725 0
3 0.3599999999996274 0
3 0.413333333332804 0
3 0.4666666666659806 0
3 0.5199999999991571 0
3 0.5733333333323336 0
3 0.6266666666656895 0
3 0.6799999999991551 0
3 0.7333333333326146 0
3 0.7866666666660802 0
3 0.8399999999995775 0
3 0.8933333333330373 0
3 0.9466666666664969 0
2.949152542373491 1 0
2.898305084746983 1 0
2.847457627120474 1 0
2.796610169493702 1 0
2.745762711866469 1 0
2.694915254239208 1 0
2.644067796611963 1 0
2.593220338985156 1 0
2.542372881358647 1 0
2.491525423732018 1 0
2.44067796610481 1 0
2.389830508477549 1 0
2.338983050850287 1 0
2.288135593223026 1 0
2.237288135595765 1 0
2.186440677968504 1 0
2.135593220341243 1 0
2.084745762713982 1 0
2.033898305086721 1 0
1.983050847459614 1 0
1.932203389832729 1 0
1.881355932205844 1 0
1.830508474578958 1 0
1.779661016952073 1 0
1.728813559325189 1 0
1.677966101698303 1 0
1.627118644071418 1 0
1.576271186444533 1 0
1.525423728817648 1 0
1.474576271190575 1 0
1.423728813563314 1 0
1.372881355936053 1 0
1.322033898308791 1 0
1.27118644068153 1 0
1.220338983054269 1 0
1.169491525427008 1 0
1.118644067799747 1 0
1.067796610172485 1 0
1.016949152545224 1 0
0.9661016949179628 1 0
0.9152542372907018 1 0
0.8644067796634407 1 0
0.8135593220361792 1 0
0.7627118644089181 1 0
0.7118644067816566 1 0
0.661016949154396 1 0
0.6101694915271345 1 0
0.5593220338998739 1 0
0.5084745762726124 1 0
0.4576271186453518 1 0
0.4067796610180903 1 0
0.3559322033908292 1 0
0.3050847457635677 1 0
0.2542372881363066 1 0
0.2033898305090456 1 0
0.1525423728817841 1 0
0.101694915254523 1 0
0.05084745762726151 1 0
0 0.9473684210524125 0
0 0.8947368421048248 0
0 0.8421052631576025 0
0 0.7894736842105994 0
0 0.7368421052635962 0
0 0.6842105263165927 0
0 0.6315789473695894 0
0 0.5789473684225861 0
0 0.5263157894755828 0
0 0.4736842105282874 0
0 0.4210526315806998 0
0 0.3684210526331123 0
0 0.3157894736855248 0
0 0.2631578947379374 0
0 0.21052631579035 0
0 0.1578947368427625 0
0 0.1052631578951749 0
0 0.05263157894758741 0
0.4374856279758046 0.955462795473483 0
0.625531914893563 0.2394317949808221 0
0.7891616249544176 0.9557759867023439 0
2.570562443351098 0.9559758769411787 0
2.364406779663917 0.9559648099769389 0
2.161016949154874 0.9559648099769389 0
1.957627118646171 0.9559648099772646 0
1.756856606547665 0.9560078743553572 0
1.553415402058453 0.9561420672712786 0
1.347457627122422 0.95627738856474 0
1.144067796613377 0.9563034567995272 0
0.04146670856173688 0.5498854761242812 0
0.9828861012149002 0.2442383967812095 0
2.465390809289578 0.2421522008426663 0
2.259572257543314 0.243586373321511 0
2.055319178697841 0.24363095694403 0
1.851066099915384 0.2436741865527954 0
1.646810778591931 0.2437170671454607 0
1.442550972205278 0.2437587738062726 0
1.238275543433999 0.2442249255777628 0
0.5808319854219957 0.2417757800606361 0
0.6039807146029165 0.2785115072887754 0
2.951522810440164 0.5995349944823752 0
0.5591131416216563 0.2791940688436214 0
0.5817690965011905 0.3180386921514113 0
0.5363223429032008 0.3181181454258206 0
0.5590799034518541 0.3577335228902347 0
2.671507320584846 0.2416532643303031 0
0.5129751095268966 0.3576683284772433 0
0.5360042291720796 0.3976917483469583 0
0.5824744072527975 0.3977458985417416 0
0.5593202208963615 0.4382323507424581 0
0.6062221806132498 0.4382172989803606 0
0.5831398502988122 0.4790536480492864 0
0.630245509211025 0.4792447281197085 0
0.5373735766893435 0.4817209888486334 0
0.2780994584865757 0.9660670791366374 0
0.9407829849899363 0.9559852449915113 0
0.6069171020766708 0.5203953730037822 0
0.6544691944766102 0.5205851219036783 0
2.724115018794794 0.9563165682871465 0
0.04341732373162228 0.2894490564426765 0
0.6304562046384772 0.5622881188475496 0
0.6786259291441818 0.5621981517123112 0
0.03938236249337418 0.7091098825652095 0
0.2999999999993055 0.04723774929726795 0
0.7024556039582556 0.5200372393771872 0
0.726826368578132 0.562505099575485 0
0.6545296629344706 0.6041261864689124 0
0.6061411599039735 0.6041581669226386 0
2.954333097254252 0.4393531299125908 0
0.7512905139641642 0.5199435586712576 0
0.7757938242112172 0.5624873891767795 0
0.4902278874550028 0.3174350849704655 0
0.4661669324669476 0.3576870257641042 0
0.8003371868304782 0.5195844107098163 0
0.8251782158071723 0.5621174250913318 0
0.6300572939290072 0.6460588488486728 0
0.581677101888915 0.6462390077748084 0
0.7994632498085218 0.6067218912904607 0
0.850068894442807 0.6047738158182728 0
0.8747482025846163 0.5617915498272615 0
0.8998102571129438 0.6045430073239006 0
0.924588798996443 0.5614360364847856 0
0.9497125983499418 0.6046345614192383 0
0.9744389394813738 0.5613114208485291 0
0.9997656958801404 0.604758732930365 0
1.024028015453996 0.5597386087889248 0
1.050046148741532 0.6042836632406788 0
1.075213347289947 0.5607219500906248 0
1.100604808237692 0.6043040651294929 0
1.125727120818654 0.5598592244124957 0
1.151165990249003 0.6040638744783449 0
1.176319565514503 0.5595216793632644 0
1.201793840633129 0.6038781229769293 0
1.226960854257978 0.5600604284234054 0
1.252470704079807 0.6038664424080111 0
1.277198987313166 0.55874807111347 0
1.303148970446812 0.6035341865995129 0
1.328130525802366 0.5586520846649797 0
1.353966012915828 0.6034054551655909 0
1.379205474149696 0.558835304845746 0
1.404820923589671 0.6032503772964327 0
1.430092956912838 0.5587079795953892 0
1.455686300628245 0.6030926920218221 0
1.480963489515269 0.5580480170404921 0
1.506562983627252 0.6028436706904448 0
1.531847734917255 0.5577680566445021 0
1.557453558526421 0.6026435181305781 0
1.582745756648754 0.5575726351194972 0
1.608358176126191 0.6024617369905624 0
1.633656322435163 0.5573842056888257 0
1.659277805706528 0.6022873884346892 0
1.684577462424181 0.5572075399874397 0
1.710203504633815 0.6021111834258887 0
1.735506494091908 0.5570246051384745 0
1.761134606493805 0.6019307913070558 0
1.786441498808711 0.5568475628142857 0
1.812072359676459 0.6017522495250318 0
1.837381834584306 0.5566653603575672 0
1.863017119880456 0.601574020443024 0
1.888326681794851 0.5564884669211013 0
1.913963858781491 0.601395113412113 0
1.939274704592935 0.5563067813822595 0
1.964908406083961 0.6012129143420911 0
1.990224566339525 0.5561292537946573 0
2.015859329864652 0.601032757987411 0
2.041177190815608 0.5559477304122714 0
2.066818109147928 0.600855564813206 0
2.09213259478423 0.5557710179709322 0
2.117774443326183 0.6006760179252703 0
2.143088896138059 0.5555900146741853 0
2.168729305797513 0.6004921726308964 0
2.194045774061603 0.5554125217101814 0
2.219686577151481 0.6003111949874665 0
2.245003702950199 0.5552312296013228 0
2.270641766736839 0.6001298880828497 0
2.295962173634055 0.5550546947866846 0
2.321601310982481 0.599950595338254 0
2.346923922781879 0.5548708301001631 0
2.372568004594504 0.5997713467128002 0
2.397895756972162 0.5547000681173012 0
2.423546697517365 0.5996004731097838 0
2.448884659670238 0.5545095609010697 0
2.474538141419978 0.5994220729206983 0
2.499902931415869 0.5543494429014709 0
2.525546234724433 0.5993228147833797 0
2.550973655834774 0.5541346321759457 0
2.576685338327378 0.5992395038842441 0
2.602182482443039 0.5540180644105763 0
2.958944511946492 0.7598964409357507 0
2.628014314012249 0.5990918128353608 0
0.4429170888396284 0.3159793431387367 0
0.4184631156771032 0.357715436029677 0
0.3946070818022522 0.3157219358498637 0
0.3697276561976696 0.3576135465858128 0
2.449044355814981 0.643990885448769 0
2.24531935830005 0.6444881680698032 0
1.024857369602972 0.6487487015028032 0
2.041498164113345 0.6452136474256573 0
1.837701628146142 0.6459229900926835 0
0.3455853078837237 0.3150377509381005 0
0.3204780172155196 0.3574251905568473 0
0.3449438693484468 0.4002519798591844 0
1.633970683060678 0.6466170330762969 0
1.227333380683899 0.6479317947648683 0
1.430444030483603 0.6473399689389928 0
0.875196942148915 0.6483605753517908 0
0.6057010339261732 0.6883083412871458 0
0.5571396249147901 0.6885103796531055 0
2.653543252321963 0.5527758280498023 0
1.099471497978971 0.5148848291986879 0
2.602427017093663 0.6438096025956825 0
2.653851606946175 0.6437140715169269 0
1.353138019780104 0.5138574114565649 0
1.556762689169365 0.5115839513085039 0
1.760509743411542 0.5109012431757174 0
1.964341412665395 0.510388685431229 0
0.2953909602266698 0.4001745965167012 0
[...]
    <PointData>
      <DataArray type="Float64" NumberOfComponents="3" Name="Velocity" format="ascii">
3.000000074633896 0 0
0 0 0
0 0 0
3.229621315278843 0 0
3.229892701459896 0 0
3.000000000001997 0 0
3.000000003224988 0 0
2.999999509787146 0 0
3.000003168618004 0 0
2.999998086225598 0 0
2.999882535017622 0 0
3.000570833730068 0 0
3.006564807122894 0 0
2.943387620522564 0 0
2.31159433783543 0 0
0.8821245057456604 0 0
0 0.05624976080744219 0
0 0.08177167815937417 0
0 0.183655310875954 0
0 0.3515468899866174 0
1.58511037133059 0 0
2.261663036614897 0 0
2.618188971627645 0 0
2.829230868328273 0 0
2.932894077346194 0 0
2.979319576687122 0 0
2.995113868531165 0 0
2.9993654620094 0 0
3.000222700575283 0 0
3.000099636694637 0 0
3.000015643742155 0 0
2.99999123876249 0 0
2.999998665263215 0 0
3.000000552802534 0 0
3.000000132526452 0 0
2.999999914363127 0 0
3.000000013908753 0 0
3.000000001232312 0 0
2.999999999005008 0 0
3.000000000263241 0 0
2.999999999946301 0 0
3.000000000010523 0 0
2.99999999999742 0 0
3.00000000000096 0 0
2.99999999999957 0 0
2.999999999999582 0 0
3.000000000002179 0 0
2.999999999996178 0 0
3.000000000001855 0 0
3.000000000004305 0 0
3.000000000001164 0 0
2.999999999964094 0 0
3.000000000010249 0 0
3.000000000271778 0 0
2.999999999459606 0 0
3.000000000183201 0 0
2.999999999507623 0 0
3.00000001733195 0 0
2.999999903461883 0 0
2.999999872867599 0 0
3.000003362378737 0 0
2.999997411201572 0 0
2.99990771570619 0 0
3.000013604773637 0 0
3.004760695546328 0 0
3.048808927128861 0 0
3.230627808246018 0.001233589477985438 0
3.220202728458101 0.0005497585285205924 0
3.221365236374701 0.0005288848490033031 0
3.22143836147234 -6.843332398710049e-05 0
3.224089236740078 -0.0003623899016679721 0
3.226143010539065 -0.0004117546279067025 0
3.223821606716776 -8.957721835936001e-05 0
3.223002281693433 -0.0003356081396633268 0
3.226718026149515 6.602502980021288e-05 0
3.22479885444818 0.0001554617544291013 0
3.22589465058142 -2.426311052160549e-05 0
3.222433611986134 -0.0003754116522565913 0
3.220113823604121 -0.001440253754905268 0
3.231229107950169 -0.001085414401774863 0
3.04438597325417 0 0
3.005335854668007 0 0
3.000156041018598 0 0
2.999931503668396 0 0
2.999995131067716 0 0
3.00000234952485 0 0
3.000000039091637 0 0
2.999999901346688 0 0
3.000000014675706 0 0
2.999999999241101 0 0
3.000000000376707 0 0
2.999999999499466 0 0
3.000000000162136 0 0
3.000000000043269 0 0
2.999999999959944 0 0
3.000000000010963 0 0
2.999999999995893 0 0
3.000000000002658 0 0
2.999999999999747 0 0
2.999999999998543 0 0
3.000000000001645 0 0
2.99999999999895 0 0
3.000000000000454 0 0
2.999999999999873 0 0
3.000000000000013 0 0
2.999999999999995 0 0
3.000000000000026 0 0
2.999999999999999 0 0
2.999999999999868 0 0
3.000000000000248 0 0
3.000000000000231 0 0
2.99999999999863 0 0
3.000000000000288 0 0
3.000000000005237 0 0
2.999999999995769 0 0
2.999999999985292 0 0
3.000000000007359 0 0
3.000000000047468 0 0
3.000000000010066 0 0
2.999999999924497 0 0
2.999999999898239 0 0
2.999999999945491 0 0
2.999999999987587 0 0
2.999999999989117 0 0
2.999999999957866 0 0
2.99999999995366 0 0
2.999999999995093 0 0
3.000000000020941 0 0
2.999999999977164 0 0
2.999999999981391 0 0
3.000000000024523 0 0
2.999999999989592 0 0
3.000000000007589 0 0
2.999999999998461 0 0
2.999999999998967 0 0
3.000000000001996 0 0
2.99999999999893 0 0
3.000000000000989 0 0
3.00000000000464 0 0
3.000000000000405 0 0
2.999999999986341 0 0
3.000000000050384 0 0
3.000000000059534 0 0
3.000000000187645 0 0
2.999999999984631 0 0
2.999999999286634 0 0
2.999999999905957 0 0
3.000000001356609 0 0
2.999999998417685 0 0
2.999999995063238 0 0
2.999999990950331 0 0
2.999999985679327 0 0
2.999999987303497 0 0
2.999999991408988 0 0
3.000000000416073 0 0
3.000000019445784 0 0
2.999999999986187 -5.372042444797639e-11 0
1.619859109871498 0.4264282449464429 0
3.000000000082657 -5.666772730003232e-10 0
2.999999978161002 2.174892205893451e-09 0
3.000000000014439 -2.994554720494762e-12 0
2.999999999993118 -1.527494971540132e-13 0
2.999999999998516 -3.445725058855969e-13 0
3.000000000000124 -1.105836300850549e-13 0
3.000000000000062 -1.148390919815542e-14 0
3.000000000003297 -1.438771098447209e-13 0
3.000000000025889 -2.801894243744529e-12 0
3.000000000501464 -9.749584396960498e-11 0
2.998696615600454 0.000616993681007644 0
2.999999996738977 1.474898598843915e-10 0
3.00000000004514 -4.947071650694391e-12 0
3.000000000004161 -2.580887320735891e-13 0
2.999999999999289 3.131450306282354e-13 0
2.999999999810547 7.99050088042216e-12 0
2.999999969728678 1.98294755728434e-10 0
2.999994567121165 5.644056245409348e-07 0
1.755092982032995 0.5013916530697942 0
2.30119742183045 0.4370245015167288 0
3.060942916303769 -0.000166980240033078 0
2.490008929850739 0.2894303789965783 0
2.733230873743512 0.2145333013597489 0
2.865681926456349 0.09147520689857448 0
2.93415926991324 0.05983006960941719 0
3.000001220709083 3.768572094957166e-08 0
2.979543525189924 0.01645717746961173 0
2.990442212226093 0.009922686593577291 0
2.973874949704962 0.03051814805187671 0
2.996590933153195 0.004547817677437073 0
2.991580501885253 0.01250284675828096 0
2.999128657201134 0.001546788654871969 0
2.997942363865894 0.00392451937987486 0
2.999875397523488 0.0002878875110536558 0
2.999999999991412 4.743738118201446e-12 0
3.000000000203892 1.240072270143166e-10 0
2.99989366211063 0.0003086694707208605 0
2.999678580876216 0.000807446272129376 0
3.00000051358678 5.892571048079242e-07 0
3.000000002017987 -1.150319553121465e-09 0
3.000021923244912 -1.66776857049762e-05 0
2.999990400942385 3.190524030649586e-05 0
2.999999999958638 4.499065829008176e-11 0
2.999883884373975 -2.11005803105181e-06 0
2.999397649052942 0.001767890444778289 0
2.999938246781494 0.0001799836921488347 0
3.000014041990191 -3.577445210439959e-05 0
3.000008542503301 -1.954275212680436e-05 0
3.071561399032442 -0.000263189671759009 0
2.999558806359288 0.002032768665230311 0
2.999954788120388 0.0001759560834512328 0
2.967244891900134 0.01987106590046801 0
2.997412605637954 0.002215922558474932 0
2.999880500197062 0.001402851863959159 0
2.999976859330743 8.000264091448678e-05 0
3.000000814070318 -3.415653087207722e-06 0
2.99999955964558 -3.168347481421875e-07 0
2.999993503115745 -3.421713696526084e-05 0
2.999990971676047 -2.548874157303701e-05 0
2.999984944534088 1.120301812061014e-05 0
2.999993167321514 -1.551492188265153e-05 0
2.999985733961933 -2.223081424594115e-05 0
2.99999660286303 -6.285033584466569e-06 0
2.999987096655446 -1.847674105818712e-05 0
2.999999787839914 -2.548290569861615e-07 0
2.999994151861728 -3.735754760247633e-06 0
3.000001199998338 1.057012592761563e-06 0
3.000000469141606 1.843100263701632e-06 0
3.000000833475597 3.641482915311732e-07 0
3.000001658863173 9.058335592699385e-07 0
3.00000008281128 -9.116272565217504e-08 0
3.000000492486901 -1.445491021779761e-07 0
2.999999849836532 -7.238623421652806e-08 0
2.999999861419099 -1.328670505654568e-07 0
2.9999999523702 2.374566176321297e-08 0
2.999999915118913 3.19583148734506e-08 0
3.000000024453853 6.664779453048968e-09 0
3.000000010898281 1.645329002206897e-08 0
3.000000002689934 -6.793047896216969e-09 0
3.000000005826786 -7.855930175419873e-09 0
2.99999999807719 1.184106787553068e-09 0
3.000000000424929 2.903551715585066e-10 0
2.999999999447064 4.336180328713589e-10 0
2.99999999854066 6.598861082899152e-10 0
3.00000000056367 -2.962259686986635e-10 0
3.000000000650082 -2.984762616040137e-10 0
2.999999999794955 9.817228127411261e-11 0
2.999999999813783 8.995778687125385e-11 0
3.000000000043879 -2.28173878387344e-11 0
3.000000000041818 -2.293196999118037e-11 0
2.99999999999529 3.913892601443405e-12 0
2.999999999992783 5.264379975881401e-12 0
2.999999999999191 -3.690072074449129e-13 0
3.000000000000651 -1.145363443378869e-12 0
3.00000000000075 -5.982963827075746e-14 0
3.000000000000126 2.48145754134649e-13 0
2.999999999999679 4.334920133932905e-14 0
3.000000000000023 -4.979515096187294e-14 0
2.999999999999864 -1.339533233353111e-14 0
2.999999999999966 -5.205923646232586e-14 0
3.000000000000822 4.419644498535254e-14 0
2.999999999999358 2.034368522794922e-13 0
2.999999999998628 -1.227079834324219e-13 0
3.0000000000023 -4.20263848910228e-13 0
3.000000000000427 1.353588643976903e-13 0
2.999999999996032 6.225429618050413e-13 0
3.000000000003338 4.043560160800103e-14 0
3.000000000003046 -6.223318549171386e-13 0
2.999999999991883 -3.092142081394069e-13 0
3.000000000000964 1.637087561883112e-13 0
3.000000000009275 2.189030725014287e-13 0
2.999999999999782 8.310517360600178e-13 0
2.999999999985311 4.520785541999719e-13 0
2.999999999997351 -1.909481401624427e-12 0
3.000000000047411 -9.234200971419926e-13 0
2.999999999939932 2.292648665381457e-12 0
2.99999999997388 6.56391125393456e-13 0
3.00000000020388 -2.729377487945948e-12 0
2.999999999690754 5.879402254328138e-14 0
3.000000000041963 3.5069485816232e-12 0
3.000000000769896 -3.174339133578991e-12 0
2.999999998803835 8.577749901505815e-12 0
2.999999998701981 1.696897226238121e-11 0
3.000000004440478 -1.793468748775595e-11 0
3.000000008428997 -1.037565311163146e-10 0
2.999999993182613 -6.636209338781942e-10 0
2.999999939783955 2.02335300936631e-10 0
2.999999903970382 6.142229166372224e-09 0
3.081250099694592 8.473214337163192e-05 0
3.000000067687798 4.616922193467915e-09 0
2.997065210027203 0.001985031132681012 0
3.000141424949073 4.513542410724481e-05 0
3.000471785503979 -0.0001620544127808375 0
3.000080015699738 -3.973188125795569e-05 0
2.999999998748406 -1.003710512762083e-11 0
2.999999999998641 2.510896147007522e-12 0
3.000000639368228 5.41393181174317e-07 0
2.999999999994909 -7.979413145195976e-13 0
3.000000000000487 -6.468655347554589e-14 0
3.000035899086408 -1.733028230126064e-05 0
2.999993361947814 1.500549249919421e-06 0
3.000003424329587 -4.712494073657727e-06 0
2.999999999993711 3.102275188182006e-12 0
2.999999990204892 1.550249152947261e-08 0
3.000000000790092 -9.620891859114043e-11 0
2.999999995261587 -3.665715359950691e-06 0
2.99999960857076 9.09816884429642e-07 0
2.999999797701792 5.320334519982268e-07 0
3.000000732744999 7.185385363273896e-10 0
2.999996176226113 2.11407446881655e-06 0
2.999999913256984 -2.277986076336873e-09 0
3.000000712464226 -6.763216280682034e-09 0
3.000000000233238 1.916224921929082e-08 0
3.000000000524734 -2.167120412487908e-10 0
3.000000000001763 -1.033151556044621e-12 0
2.999999999999071 4.133397265164218e-13 0
2.999997523861086 9.049791495830898e-07 0
2.999997523222141 8.319579561770805e-07 0
3.000000000003899 -1.647666969720937e-12 0
2.99999999968327 2.883804318100983e-12 0
2.999999935328742 1.403434814226902e-09 0
2.998616620554273 0.008264690224970962 0
3.000002304580299 -1.343893420404972e-05 0
3.000000046910949 -8.48952678384502e-09 0
3.000001516913989 5.564903296742666e-09 0
2.999999993577417 7.498922307190809e-08 0
2.999999923257465 2.64732520679929e-07 0
3.000000030508165 -2.544513176281805e-08 0
2.999999990614483 1.284899520858017e-07 0
3.000000021106705 -3.538363329938213e-08 0
3.000000051946173 -3.295009154371107e-08 0
3.000000000213091 -8.811659940304935e-09 0
3.00000001815213 -3.119400381312485e-08 0
2.999999995373924 4.218150136153576e-09 0
2.999999995188862 -1.070328036423323e-09 0
3.000000000314732 1.326953144053649e-09 0
2.999999996893024 4.249152942707218e-09 0
0.6012999367862899 0.213519531303583 0
2.999763252128399 0.0002878981921995435 0
3.000000000618896 -1.117862722970461e-09 0
2.999989261106058 3.244879533117462e-06 0
2.999902190870942 2.158866412113323e-05 0
2.999999718349781 2.669968798347181e-07 0
2.911842987452087 0.04124984516607607 0
3.000000001589588 -8.683995243007391e-10 0
3.000000663616545 -1.433834795943531e-08 0
2.999999898573033 8.533184291093794e-10 0
3.000000673435552 1.516044054830151e-08 0
2.999994975496898 3.70941036374211e-07 0
2.524401761375914 0.1527452740314552 0
3.0000000129471 -3.49104295888496e-08 0
3.000005146254365 -1.037852135350926e-07 0
3.000000001128719 -1.153312231624569e-10 0
3.000000013060258 -2.968663356323428e-09 0
2.999988567945758 -1.489335926483943e-06 0
2.999989536731534 3.397759568095144e-06 0
3.000000000009976 1.068399731270042e-11 0
3.000000000144332 -5.05278924666339e-10 0
2.99999999999619 3.970683093598233e-13 0
3.000000000000012 -7.945565167923877e-14 0
3.000000000001104 -4.599600053461416e-13 0
2.999999999843677 8.954605077258527e-11 0
2.999999999998374 3.762015948969833e-13 0
2.999999999999196 3.237346652091985e-13 0
2.999999999883409 -3.141400503247897e-12 0
2.999999996554002 1.415885917911977e-10 0
2.999999999991169 3.747135199297404e-13 0
3.000187497023301 -5.182446991254472e-05 0
3.000000237962799 -2.066409569269643e-08 0
2.999999996451613 -2.881983383770761e-09 0
2.999999999995668 5.961009292838044e-13 0
2.999999999999234 1.065126465974336e-13 0
2.999999997654261 -1.012467190877035e-10 0
2.999999999897689 -9.106052924681716e-12 0
2.999999999990309 -4.406390748026637e-13 0
3.000000000026569 3.469279810018803e-12 0
3.000000000000025 -9.505020520930527e-15 0
3.000000000000266 -3.929541319114846e-13 0
2.999999999996744 -1.015653517294403e-12 0
2.999999905137073 -8.041133512575769e-08 0
3.000000000002861 -3.080529082037217e-13 0
2.999999999999805 8.531672283494566e-14 0
3.000000000039601 -1.744845674711426e-11 0
3.000000001364282 7.206397380887833e-11 0
3.000000000206264 -6.684183308598465e-13 0
3.000000000047606 -2.942684601443804e-13 0
3.000000967953909 -2.353496577325228e-07 0
2.999999978134599 -3.47173278197093e-09 0
3.000000055278429 -5.2231073048237e-08 0
2.999976159444197 -1.729694025362283e-05 0
3.004551975925744 -0.0005325232759775991 0
2.99999999854727 4.364856402123632e-11 0
3.000000028192713 5.303123749741913e-08 0
3.00000000117767 -9.928562587696198e-10 0
2.954850233599774 0.06213252819693985 0
3.000000141234957 -4.984695840380155e-08 0
2.99999999963969 4.072475596972759e-10 0
2.999999992758215 5.330625336474845e-09 0
3.000000000954581 8.373842869719457e-10 0
2.999977513268854 4.113265004676867e-07 0
3.000000030805837 1.776066116896203e-09 0
2.999999944074834 1.627472259673942e-09 0
2.999999996266834 2.50773063498551e-09 0
2.999999999949995 1.831606610445887e-10 0
2.999999704123854 5.166506478862562e-07 0
2.999952461612767 1.189792580409137e-06 0
3.000000000101193 1.624009542605021e-10 0
3.000002555121704 -5.414825771278804e-06 0
2.999959345832799 7.043825376480267e-06 0
2.999994597738642 1.895667328449826e-06 0
3.00000142270276 -3.157280379856557e-07 0
2.999995715843523 -1.13795713409186e-07 0
2.999955872959334 -3.912730139529409e-07 0
3.072045373869608 0.0008946362601718694 0
3.057210021514785 -0.000932165240802375 0
2.999997831877868 1.155172503278483e-06 0
2.999999999965583 -9.113097781156117e-11 0
2.999949089413823 0.004949200179578356 0
2.99701898392464 0.02072641547960258 0
3.000374484029504 0.01038336070693538 0
2.9999732043585 9.240990924398843e-07 0
3.000002706001994 -8.849352148336181e-06 0
2.284598607223918 0.2825680642272858 0
2.999998609928769 -2.247667822017075e-06 0
3.000000092569002 -2.961007222897314e-08 0
2.999999999008998 -4.595980045422802e-09 0
2.999999999441152 -9.037807859402098e-09 0
3.000001894341432 -4.296534958937326e-07 0
2.999999999927601 5.537112063914082e-11 0
2.994564983927004 0.03369351446278534 0
3.000353411709152 0.01572282237790055 0
2.979858384985881 0.06112554374786601 0
2.999991747008477 -1.101247467815244e-06 0
2.999946605490206 9.690007751311208e-07 0
3.000000000042015 -1.966503230884343e-11 0
3.00000000014006 -1.426008336411417e-10 0
2.999999907568708 3.920583914529636e-09 0
2.999999997119679 1.931307315993118e-10 0
3.000000009802927 -3.613682764280807e-10 0
3.000000003148248 -1.862424952646449e-10 0
2.999999998424207 4.804230848300257e-11 0
2.999999999097338 3.415504801701359e-11 0
3.00000000080734 -4.283539104719142e-12 0
2.999999999912755 -1.521055988755562e-11 0
2.99999999972571 -3.096947465634227e-12 0
3.000000000195862 1.152052178836228e-11 0
2.999999999945418 -6.340498627080252e-12 0
2.999999999966981 7.135501717331359e-12 0
3.000000000062287 8.617934548738457e-13 0
2.999999999980981 -7.05710800503748e-12 0
2.999999999978741 2.211487170950746e-12 0
3.000000000015331 5.722626805197132e-13 0
3.000000000006993 -5.184518103015154e-13 0
2.999999999988427 1.110232328719003e-12 0
2.999999999999277 -2.967948577081786e-13 0
3.000000000008421 -2.730667698163401e-13 0
2.999999999996332 -2.446870392625264e-13 0
2.999999999996136 -6.96102634713215e-14 0
3.00000000000446 5.566738769363064e-13 0
3.000000000000517 -1.951861839447868e-13 0
2.999999999997145 -2.731189075045838e-13 0
3.000000000000605 3.724028511611645e-13 0
3.000000000001124 -1.012459491968511e-13 0
2.999999999999532 -3.063741444695732e-13 0
2.999999999999793 2.445073417006769e-13 0
3.000000000000135 1.437902015249428e-13 0
2.999999999999915 -1.733737253850526e-13 0
3.000000000000004 -1.104162498186099e-14 0
3.000000000000171 1.3633954334351e-14 0
2.999999999999929 -4.194073533824882e-14 0
2.999999999999972 9.697076222730805e-14 0
3.000000000000381 -2.336590988579067e-14 0
2.999999999998973 1.359606025543508e-13 0
2.999999999999286 2.034797352294536e-13 0
3.000000000002337 -1.005926190869967e-12 0
2.999999999998746 -1.265376159883203e-13 0
3.000000000004628 1.366442076325053e-12 0
3.000000000008535 -9.352804797688173e-13 0
2.999999999965692 2.678628152863223e-12 0
2.999999999985526 2.649850330380845e-12 0
3.000000000065493 -1.231056541402371e-11 0
2.999999999994593 -2.700778015257774e-12 0
3.000000000005592 1.795422757588704e-11 0
3.000000000074837 -1.001289660042619e-12 0
2.999999999693759 -1.230600743535267e-11 0
2.999999999877402 6.697456355019791e-12 0
3.000000000617846 -2.315441623725234e-11 0
2.999999999867222 -2.047334862464069e-11 0
3.00000000034454 1.626262717011832e-10 0
3.000000000630842 8.609659488581318e-11 0
2.999999997158441 -5.458825586410112e-10 0
2.999999999964067 -4.513522285763207e-11 0
3.000000000114575 3.785191688021248e-11 0
2.999999998070617 -5.099000554737019e-10 0
3.000000008394632 3.249437044312294e-09 0
2.999999999090742 6.380522963564307e-10 0
3.000000010814602 2.471020146153967e-09 0
3.000000004584864 3.553076639613721e-09 0
2.999999995574395 -1.233526457618496e-08 0
3.000000009649498 4.034485188349403e-09 0
2.999999966508416 -4.063414638390591e-08 0
3.000000007108516 -4.391727263397616e-09 0
2.999999943694756 -5.574826962807782e-08 0
2.999999998688962 -2.27520718075037e-08 0
2.999999948257571 -2.77842096052221e-08 0
2.999999993944183 -3.87002710378699e-08 0
2.999999960965552 3.158137836702473e-08 0
2.999999997886939 -4.069433936289762e-08 0
2.999976175081565 -2.064157282789264e-07 0
2.9999865206839 -3.727046582697804e-06 0
2.999999988993108 3.48766510181732e-09 0
2.999999999130084 2.807155844340558e-09 0
2.999959317333034 7.778525317932196e-06 0
3.000069410807876 -1.176271262245946e-05 0
3.000241634089355 -5.180678651075728e-06 0
2.999999963000832 4.764964633448143e-08 0
3.000000003809594 -4.008561163385566e-08 0
3.000000001090548 7.248388405568706e-07 0
3.000000240342613 -1.01940275180835e-07 0
3.000325259201005 3.471718265715537e-06 0
2.999976512781265 2.726870483026673e-06 0
3.001417710112436 3.44176459791231e-05 0
3.000222331612233 -1.160787265051842e-05 0
2.999948782451499 -1.677649257702633e-07 0
2.999975673446556 -4.232150883805017e-06 0
2.999973674945402 1.337846188621193e-06 0
2.99994182178368 3.926029676954958e-06 0
2.999993845575865 6.544716319505999e-07 0
2.99996641443568 5.93784897131195e-08 0
3.000000563780741 2.596246737584379e-09 0
2.999917066041014 -4.084293353650445e-06 0
3.000001639434193 2.502863286003463e-08 0
3.000000662797158 1.687622415715413e-08 0
2.999998795665276 1.033981225253398e-06 0
2.999998107656002 -6.617699872202565e-09 0
2.999999991402619 4.642752623682481e-09 0
3.000000004127236 4.072535116389774e-09 0
2.999999717408337 1.525571170078239e-08 0
3.000000000001444 2.68082673407907e-12 0
1.47986096398619 0.01036286599922394 0
3.000000065495944 -9.430110090342935e-09 0
2.999999926932194 -1.164810005435913e-09 0
2.999999938565499 -2.094690118891493e-09 0