<?xml version="1.0"?>
<VTKFile type="UnstructuredGrid">
  <UnstructuredGrid>
  <Piece NumberOfPoints="1224"  NumberOfCells="2290">
    <Points>
      <DataArray type="Float64" NumberOfComponents="3" format="ascii">
0 0 0
0.6 0 0
0.6 0.2 0
3 0.2 0
3 1 0
0 1 0
0.05454545454535233 0 0
0.1090909090906768 0 0
0.1636363636359771 0 0
0.2181818181812728 0 0
0.2727272727265793 0 0
0.3272727272720317 0 0
0.3818181818176247 0 0
0.4363636363632168 0 0
0.4909090909088285 0 0
0.5454545454544089 0 0
0.6 0.03999999999991203 0
0.6 0.07999999999979179 0
0.6 0.1199999999997886 0
0.6 0.1599999999998948 0
0.6510638297871261 0.2 0
0.7021276595742618 0.2 0
0.7531914893613819 0.2 0
0.8042553191485237 0.2 0
0.8553191489356438 0.2 0
0.9063829787228289 0.2 0
0.957446808509926 0.2 0
1.008510638297009 0.2 0
1.059574468084092 0.2 0
1.110638297871174 0.2 0
1.161702127658257 0.2 0
1.21276595744534 0.2 0
1.263829787232422 0.2 0
1.314893617019505 0.2 0
1.365957446806588 0.2 0
1.417021276593671 0.2 0
1.468085106380754 0.2 0
1.519148936167923 0.2 0
1.570212765955006 0.2 0
1.621276595742088 0.2 0
1.672340425529171 0.2 0
1.723404255316254 0.2 0
1.774468085103337 0.2 0
1.825531914890624 0.2 0
1.876595744677951 0.2 0
1.927659574465349 0.2 0
1.978723404252714 0.2 0
2.029787234040074 0.2 0
2.080851063827477 0.2 0
2.131914893614798 0.2 0
2.182978723402204 0.2 0
2.234042553189523 0.2 0
2.285106382976928 0.2 0
2.336170212764247 0.2 0
2.387234042551653 0.2 0
2.438297872338975 0.2 0
2.489361702126377 0.2 0
2.540425531913739 0.2 0
2.591489361701102 0.2 0
2.642553191488421 0.2 0
2.693617021275827 0.2 0
2.744680851063146 0.2 0
2.795744680850551 0.2 0
2.84680851063787 0.2 0
2.897872340425276 0.2 0
2.948936170212618 0.2 0
3 0.2533333333332341 0
3 0.3066666666664725 0
3 0.3599999999996274 0
3 0.413333333332804 0
3 0.4666666666659806 0
3 0.5199999999991571 0
3 0.5733333333323336 0
3 0.6266666666656895 0
3 0.6799999999991551 0
3 0.7333333333326146 0
3 0.7866666666660802 0
3 0.8399999999995775 0
3 0.8933333333330373 0
3 0.9466666666664969 0
2.949152542373491 1 0
2.898305084746983 1 0
2.847457627120474 1 0
2.796610169493702 1 0
2.745762711866469 1 0
2.694915254239208 1 0
2.644067796611963 1 0
2.593220338985156 1 0
2.542372881358647 1 0
2.491525423732018 1 0
2.44067796610481 1 0
2.389830508477549 1 0
2.338983050850287 1 0
2.288135593223026 1 0
2.237288135595765 1 0
2.186440677968504 1 0
2.135593220341243 1 0
2.084745762713982 1 0
2.033898305086721 1 0
1.983050847459614 1 0
1.932203389832729 1 0
1.881355932205844 1 0
1.830508474578958 1 0
1.779661016952073 1 0
1.728813559325189 1 0
1.677966101698303 1 0
1.627118644071418 1 0
1.576271186444533 1 0
1.525423728817648 1 0
1.474576271190575 1 0
1.423728813563314 1 0
1.372881355936053 1 0
1.322033898308791 1 0
1.27118644068153 1 0
1.220338983054269 1 0
1.169491525427008 1 0
1.118644067799747 1 0
1.067796610172485 1 0
1.016949152545224 1 0
0.9661016949179628 1 0
0.9152542372907018 1 0
0.8644067796634407 1 0
0.8135593220361792 1 0
0.7627118644089181 1 0
0.7118644067816566 1 0
0.661016949154396 1 0
0.6101694915271345 1 0
0.5593220338998739 1 0
0.5084745762726124 1 0
0.4576271186453518 1 0
0.4067796610180903 1 0
0.3559322033908292 1 0
0.3050847457635677 1 0
0.2542372881363066 1 0
0.2033898305090456 1 0
0.1525423728817841 1 0
0.101694915254523 1 0
0.05084745762726151 1 0
0 0.9473684210524125 0
0 0.8947368421048248 0
0 0.8421052631576025 0
0 0.7894736842105994 0
0 0.7368421052635962 0
0 0.6842105263165927 0
0 0.6315789473695894 0
0 0.5789473684225861 0
0 0.5263157894755828 0
0 0.4736842105282874 0
0 0.4210526315806998 0
0 0.3684210526331123 0
0 0.3157894736855248 0
0 0.2631578947379374 0
0 0.21052631579035 0
0 0.1578947368427625 0
0 0.1052631578951749 0
0 0.05263157894758741 0
0.4374856279758046 0.955462795473483 0
0.625531914893563 0.2394317949808221 0
0.7891616249544176 0.9557759867023439 0
2.570562443351098 0.9559758769411787 0
2.364406779663917 0.9559648099769389 0
2.161016949154874 0.9559648099769389 0
1.957627118646171 0.9559648099772646 0
1.756856606547665 0.9560078743553572 0
1.553415402058453 0.9561420672712786 0
1.347457627122422 0.95627738856474 0
1.144067796613377 0.9563034567995272 0
0.04146670856173688 0.5498854761242812 0
0.9828861012149002 0.2442383967812095 0
2.465390809289578 0.2421522008426663 0
2.259572257543314 0.243586373321511 0
2.055319178697841 0.24363095694403 0
1.851066099915384 0.2436741865527954 0
1.646810778591931 0.2437170671454607 0
1.442550972205278 0.2437587738062726 0
1.238275543433999 0.2442249255777628 0
0.5808319854219957 0.2417757800606361 0
0.6039807146029165 0.2785115072887754 0
2.951522810440164 0.5995349944823752 0
0.5591131416216563 0.2791940688436214 0
0.5817690965011905 0.3180386921514113 0
0.5363223429032008 0.3181181454258206 0
0.5590799034518541 0.3577335228902347 0
2.671507320584846 0.2416532643303031 0
0.5129751095268966 0.3576683284772433 0
0.5360042291720796 0.3976917483469583 0
0.5824744072527975 0.3977458985417416 0
0.5593202208963615 0.4382323507424581 0
0.6062221806132498 0.4382172989803606 0
0.5831398502988122 0.4790536480492864 0
0.630245509211025 0.4792447281197085 0
0.5373735766893435 0.4817209888486334 0
0.2780994584865757 0.9660670791366374 0
0.9407829849899363 0.9559852449915113 0
0.6069171020766708 0.5203953730037822 0
0.6544691944766102 0.5205851219036783 0
2.724115018794794 0.9563165682871465 0
0.04341732373162228 0.2894490564426765 0
0.6304562046384772 0.5622881188475496 0
0.6786259291441818 0.5621981517123112 0
0.03938236249337418 0.7091098825652095 0
0.2999999999993055 0.04723774929726795 0
0.7024556039582556 0.5200372393771872 0
0.726826368578132 0.562505099575485 0
0.6545296629344706 0.6041261864689124 0
0.6061411599039735 0.6041581669226386 0
2.954333097254252 0.4393531299125908 0
0.7512905139641642 0.5199435586712576 0
0.7757938242112172 0.5624873891767795 0
0.4902278874550028 0.3174350849704655 0
0.4661669324669476 0.3576870257641042 0
0.8003371868304782 0.5195844107098163 0
0.8251782158071723 0.5621174250913318 0
0.6300572939290072 0.6460588488486728 0
0.581677101888915 0.6462390077748084 0
0.7994632498085218 0.6067218912904607 0
0.850068894442807 0.6047738158182728 0
0.8747482025846163 0.5617915498272615 0
0.8998102571129438 0.6045430073239006 0
0.924588798996443 0.5614360364847856 0
0.9497125983499418 0.6046345614192383 0
0.9744389394813738 0.5613114208485291 0
0.9997656958801404 0.604758732930365 0
1.024028015453996 0.5597386087889248 0
1.050046148741532 0.6042836632406788 0
1.075213347289947 0.5607219500906248 0
1.100604808237692 0.6043040651294929 0
1.125727120818654 0.5598592244124957 0
1.151165990249003 0.6040638744783449 0
1.176319565514503 0.5595216793632644 0
1.201793840633129 0.6038781229769293 0
1.226960854257978 0.5600604284234054 0
1.252470704079807 0.6038664424080111 0
1.277198987313166 0.55874807111347 0
1.303148970446812 0.6035341865995129 0
1.328130525802366 0.5586520846649797 0
1.353966012915828 0.6034054551655909 0
1.379205474149696 0.558835304845746 0
1.404820923589671 0.6032503772964327 0
1.430092956912838 0.5587079795953892 0
1.455686300628245 0.6030926920218221 0
1.480963489515269 0.5580480170404921 0
1.506562983627252 0.6028436706904448 0
1.531847734917255 0.5577680566445021 0
1.557453558526421 0.6026435181305781 0
1.582745756648754 0.5575726351194972 0
1.608358176126191 0.6024617369905624 0
1.633656322435163 0.5573842056888257 0
1.659277805706528 0.6022873884346892 0
1.684577462424181 0.5572075399874397 0
1.710203504633815 0.6021111834258887 0
1.735506494091908 0.5570246051384745 0
1.761134606493805 0.6019307913070558 0
1.786441498808711 0.5568475628142857 0
1.812072359676459 0.6017522495250318 0
1.837381834584306 0.5566653603575672 0
1.863017119880456 0.601574020443024 0
1.888326681794851 0.5564884669211013 0
1.913963858781491 0.601395113412113 0
1.939274704592935 0.5563067813822595 0
1.964908406083961 0.6012129143420911 0
1.990224566339525 0.5561292537946573 0
2.015859329864652 0.601032757987411 0
2.041177190815608 0.5559477304122714 0
2.066818109147928 0.600855564813206 0
2.09213259478423 0.5557710179709322 0
2.117774443326183 0.6006760179252703 0
2.143088896138059 0.5555900146741853 0
2.168729305797513 0.6004921726308964 0
2.194045774061603 0.5554125217101814 0
2.219686577151481 0.6003111949874665 0
2.245003702950199 0.5552312296013228 0
2.270641766736839 0.6001298880828497 0
2.295962173634055 0.5550546947866846 0
2.321601310982481 0.599950595338254 0
2.346923922781879 0.5548708301001631 0
2.372568004594504 0.5997713467128002 0
2.397895756972162 0.5547000681173012 0
2.423546697517365 0.5996004731097838 0
2.448884659670238 0.5545095609010697 0
2.474538141419978 0.5994220729206983 0
2.499902931415869 0.5543494429014709 0
2.525546234724433 0.5993228147833797 0
2.550973655834774 0.5541346321759457 0
2.576685338327378 0.5992395038842441 0
2.602182482443039 0.5540180644105763 0
2.958944511946492 0.7598964409357507 0
2.628014314012249 0.5990918128353608 0
0.4429170888396284 0.3159793431387367 0
0.4184631156771032 0.357715436029677 0
0.3946070818022522 0.3157219358498637 0
0.3697276561976696 0.3576135465858128 0
2.449044355814981 0.643990885448769 0
2.24531935830005 0.6444881680698032 0
1.024857369602972 0.6487487015028032 0
2.041498164113345 0.6452136474256573 0
1.837701628146142 0.6459229900926835 0
0.3455853078837237 0.3150377509381005 0
0.3204780172155196 0.3574251905568473 0
0.3449438693484468 0.4002519798591844 0
1.633970683060678 0.6466170330762969 0
1.227333380683899 0.6479317947648683 0
1.430444030483603 0.6473399689389928 0
0.875196942148915 0.6483605753517908 0
0.6057010339261732 0.6883083412871458 0
0.5571396249147901 0.6885103796531055 0
2.653543252321963 0.5527758280498023 0
1.099471497978971 0.5148848291986879 0
2.602427017093663 0.6438096025956825 0
2.653851606946175 0.6437140715169269 0
1.353138019780104 0.5138574114565649 0
1.556762689169365 0.5115839513085039 0
1.760509743411542 0.5109012431757174 0
1.964341412665395 0.510388685431229 0
0.2953909602266698 0.4001745965167012 0
[...]
    <PointData>
      <DataArray type="Float64" NumberOfComponents="3" Name="Velocity" format="ascii">
2.999999890421415 0 0
0 0 0
0 0 0
3.142938852782552 0 0
3.146327235470029 0 0
3 0 0
3.000000123260449 0 0
2.999999438091932 0 0
3.000002575711918 0 0
2.99998927107728 0 0
3.000051240591313 0 0
2.999725447965053 0 0
3.00143608585668 0 0
2.993168306466487 0 0
3.030469644417152 0 0
2.950978390666016 0 0
0 -0.001554224846418366 0
0 0.01267710325036879 0
0 -0.009733594721193072 0
0 0.024973916062488 0
2.543123681650246 0 0
2.995896266033994 0 0
3.004799049871996 0 0
2.998414918219843 0 0
3.000393819756159 0 0
2.999906670105239 0 0
3.000018942566476 0 0
2.999996262766807 0 0
3.000001059078884 0 0
2.999999604059115 0 0
3.000000134473722 0 0
2.999999966245039 0 0
3.000000006295603 0 0
2.999999999397172 0 0
2.999999999896517 0 0
3.000000000066583 0 0
2.999999999980661 0 0
3.000000000003905 0 0
2.999999999999488 0 0
3.000000000000004 0 0
3.000000000000022 0 0
2.99999999999999 0 0
3.000000000000002 0 0
3 0 0
3.000000000000001 0 0
2.999999999999999 0 0
2.999999999999996 0 0
3.000000000000044 0 0
2.99999999999982 0 0
3.000000000000187 0 0
3.000000000002558 0 0
2.999999999980719 0 0
3.000000000061288 0 0
3.000000000052242 0 0
2.999999998269928 0 0
3.000000010445672 0 0
2.999999957228276 0 0
3.00000015311147 0 0
2.999999441974884 0 0
3.000002122237822 0 0
2.999991256443531 0 0
3.000035226682871 0 0
2.999888814795576 0 0
3.000254165785774 0 0
2.999481491710539 0 0
2.997222163819745 0 0
3.14830062234142 0.0007296735713842886 0
3.13888358555784 -0.0004256967211242447 0
3.140407438656649 7.424178507916144e-05 0
3.140286422755824 -9.547963723849608e-06 0
3.141884895674602 -0.0002045385372288054 0
3.143046630371912 -9.345696292063767e-05 0
3.141738574813749 0.0005324878276883018 0
3.141182854067329 -0.0005599449944552629 0
3.144741932676242 4.433275690023159e-05 0
3.142959453316438 7.098509010439253e-05 0
3.143552798212945 -4.273322034345516e-05 0
3.139907202631609 0.0005667406850758676 0
3.139737097930368 -0.000559660503784652 0
3.15229163450508 -0.0001939046523774994 0
2.994698413384813 0 0
2.999343279981508 0 0
3.000256919792097 0 0
2.999932159645919 0 0
3.000020535882065 0 0
2.999993660152252 0 0
3.000001735700158 0 0
2.999999578300738 0 0
3.000000104834867 0 0
2.999999973198712 0 0
3.000000005426701 0 0
2.999999999510915 0 0
2.999999999877067 0 0
3.000000000057483 0 0
2.999999999989713 0 0
2.999999999999967 0 0
3.000000000000561 0 0
2.999999999999829 0 0
3.000000000000026 0 0
3 0 0
2.999999999999998 0 0
3.000000000000001 0 0
3 0 0
3 0 0
3 0 0
3 0 0
3 0 0
3 0 0
3 0 0
3 0 0
3.000000000000003 0 0
2.999999999999999 0 0
2.999999999999992 0 0
3.000000000000018 0 0
3.000000000000015 0 0
2.999999999999889 0 0
3.000000000000041 0 0
3.000000000000428 0 0
2.999999999999671 0 0
2.999999999998553 0 0
3.000000000000671 0 0
3.000000000004747 0 0
3.000000000002057 0 0
2.999999999989323 0 0
2.999999999979651 0 0
2.999999999989527 0 0
3.000000000003199 0 0
2.999999999995555 0 0
2.999999999988906 0 0
2.999999999997264 0 0
3.000000000002093 0 0
2.999999999999878 0 0
2.999999999999901 0 0
2.999999999999972 0 0
2.999999999999943 0 0
3.000000000000058 0 0
2.999999999999966 0 0
3.000000000000008 0 0
3.000000000000083 0 0
2.999999999999694 0 0
2.999999999999929 0 0
3.000000000006287 0 0
2.999999999985546 0 0
3.000000000053924 0 0
2.999999999810544 0 0
3.00000000078328 0 0
2.999999999882265 0 0
2.999999997851109 0 0
2.999999998639635 0 0
3.000000003750213 0 0
3.000000020698403 0 0
3.000000024667884 0 0
3.000000046455364 0 0
3.000000047180841 0 0
3.000000005798718 0 0
2.999999970963387 0 0
2.999999999998875 -6.724259124803696e-12 0
2.522577762767292 0.1449931336365327 0
3.000000000007262 -1.374126771239754e-11 0
2.999999985896443 5.253712696332477e-09 0
3.000000000636057 1.192112115714414e-11 0
2.999999999998582 4.181377087528617e-14 0
3.000000000000004 3.851862411911938e-18 0
3 9.193163962372975e-17 0
3 8.567764763962352e-17 0
3.000000000000009 -7.536409844427917e-15 0
3.000000000000221 5.539482640412373e-14 0
2.999999998989241 2.433999419317523e-10 0
3.000001424287182 -2.140094961565707e-07 0
3.000000000325988 -7.983838038962148e-10 0
3.000000000016218 -6.014642039245267e-13 0
2.999999999999987 -2.523276690108469e-16 0
3 -5.686950657313265e-17 0
2.999999999999913 9.209641404998597e-16 0
3.000000000017855 -1.458877023880224e-13 0
3.000000010301672 -2.37299668935193e-10 0
2.691993597221728 0.1188549893626022 0
2.980318346964292 0.03232613902582209 0
2.998899289570228 -2.202764970383272e-05 0
3.006778792538246 0.004989830564389306 0
3.006836167746597 -0.005672789408366178 0
3.000380773041538 -0.001187251441169541 0
2.999047465122931 0.0004820183722659935 0
2.999999250927137 -1.386925039057039e-07 0
2.999799404626965 0.0002597192850347134 0
3.000129376465276 -3.638408994826081e-05 0
3.000039599914754 0.0002709376072657222 0
3.000018600002456 -7.422941415656809e-05 0
3.000072165370051 -0.0001425737413670273 0
2.999977510607341 2.754371383674213e-05 0
2.999973188833999 2.851736493072355e-05 0
2.999994496873068 1.569413712122884e-05 0
2.999999999999904 -6.907800185287259e-13 0
3.000000000001872 3.418917288878122e-12 0
3.000007092101591 -1.233744989500437e-06 0
3.000006313047872 -3.329868788410374e-06 0
2.999999600073663 -9.060788787446095e-07 0
2.999999988608649 5.849558320697423e-10 0
2.999998738179111 -1.680503568021797e-06 0
2.999998355435464 1.781089445561957e-07 0
3.000000000006205 -4.839548338120683e-12 0
3.000016756858754 6.939646294804567e-06 0
3.000003700556191 -6.460514611003102e-06 0
2.999998959231311 1.698807567707594e-06 0
3.000000235106028 7.747060465293822e-07 0
3.000000090257977 8.907783433088985e-07 0
3.003640652458279 -1.294599242228571e-05 0
2.999999120922962 -3.441083162837676e-06 0
3.000000402476333 7.293333824298374e-07 0
2.99902753889842 0.0004646564910607222 0
3.000173476081562 -7.941045730458583e-05 0
2.999997340359417 1.144858252202343e-06 0
3.00000062644389 -3.608619434170834e-07 0
3.000000039108311 -3.478232338384998e-07 0
2.999999982388745 -2.729674307239827e-07 0
2.999999837453635 -1.481287910539793e-07 0
2.9999998614028 1.127592310246078e-07 0
2.999999865619742 -1.944809676010116e-07 0
3.000000044858679 4.736231954263275e-08 0
2.999999770151836 1.228110211382542e-07 0
3.000000057334202 -3.902937489693324e-08 0
3.000000047600848 2.647069426032243e-08 0
2.999999981240093 -3.916219562617519e-09 0
3.000000061887335 -3.63749352424259e-08 0
2.999999987229017 1.021556362073707e-08 0
2.999999973025164 5.67665463974577e-09 0
3.000000008317451 -2.86830974533072e-09 0
2.9999999970328 3.722991587192698e-09 0
2.999999999395548 -4.825480346605482e-10 0
3.000000005895023 -2.356055188052945e-09 0
2.999999998993081 5.619919303682408e-10 0
2.999999997131377 7.932063956644809e-10 0
3.000000000620715 -2.223514741561877e-10 0
3.000000000953776 -1.942257833663126e-10 0
2.999999999772833 5.777303303479787e-11 0
2.999999999728964 4.254796170794629e-11 0
3.000000000064382 -1.126644014750122e-11 0
3.000000000071395 -9.989027663926119e-12 0
2.999999999984361 1.858254889272684e-12 0
2.999999999980781 2.77750509587898e-12 0
3.000000000003799 -3.815213723725139e-13 0
3.000000000005369 -8.324250253701799e-13 0
2.99999999999892 1.345282051963389e-13 0
2.999999999998563 2.296223287153596e-13 0
3.000000000000343 -5.283657855069799e-14 0
3.000000000000344 -5.407227796020618e-14 0
2.999999999999894 1.754550663225692e-14 0
2.99999999999993 1.033105408447761e-14 0
3.000000000000029 -4.7442083194518e-15 0
3.000000000000009 -1.294936229990099e-15 0
2.999999999999994 1.016716454077799e-15 0
2.999999999999999 -2.296056169080521e-17 0
3.000000000000001 -1.706679669991701e-16 0
2.999999999999999 2.831932482362978e-17 0
3 1.540718871868276e-17 0
3 -4.270564064540737e-18 0
3.000000000000001 -9.227553616791788e-17 0
3.000000000000001 -1.239328764397707e-17 0
2.999999999999999 3.248738586828864e-17 0
3.000000000000001 9.858329370031733e-18 0
3.000000000000005 -5.021548793577087e-17 0
2.999999999999991 -8.406911808438482e-17 0
2.999999999999998 4.402933945877811e-17 0
3.000000000000046 6.553019062585972e-16 0
2.999999999999935 9.230942197140085e-16 0
2.999999999999897 -2.743083492115275e-15 0
3.000000000000485 -5.890465752438913e-15 0
2.999999999999668 9.174361035772841e-15 0
2.999999999998371 1.870626226957573e-14 0
3.00000000000419 -1.079349125088833e-14 0
2.99999999999984 5.290028391888816e-16 0
2.999999999981537 -1.940124460119299e-13 0
3.000000000035518 -3.472687361091118e-13 0
3.000000000023517 2.205245145634072e-12 0
2.999999999783333 1.826688792071666e-12 0
3.000000000249419 -1.451038812918195e-11 0
3.000000000616728 -2.682984714609112e-12 0
2.999999998007177 6.886765153721556e-11 0
3.000000000067725 -2.030048297138769e-11 0
3.000000007581317 -2.7860444067683e-10 0
2.999999992409357 1.267891409365045e-10 0
2.999999978029205 1.368091827885254e-09 0
3.000000033176913 -2.623651929651318e-10 0
3.000000074750527 -7.015680367232342e-09 0
2.999999851798305 8.646416072153984e-10 0
2.999999748852304 2.427853573726136e-08 0
3.009819045994797 1.798253651053543e-05 0
3.000000690125781 -3.437254785074325e-09 0
3.000264971131189 -3.61603784117933e-05 0
2.999979069139204 -7.588585673133224e-06 0
3.000027454756687 -2.432536014137436e-05 0
2.999977577393635 1.074836513820168e-05 0
3.000000007663786 2.020608667557066e-10 0
2.999999999981879 5.145953446409856e-13 0
3.000000007561506 -1.507116254328273e-09 0
3.000000000000045 -2.007161683981275e-15 0
3 -1.448444457357372e-17 0
2.999971630794337 8.442595141722374e-06 0
3.000011596956789 -3.21072815231809e-06 0
3.000006706179723 -3.14947317561619e-06 0
3.000000000000017 -2.506091946908442e-15 0
3.000000000073475 -9.024970692053351e-11 0
3.000000000003444 -4.337317074641216e-13 0
3.000000034399436 -4.075722640325639e-08 0
2.999999970856816 1.048261941945964e-07 0
3.000000011815715 7.217932033452195e-08 0
3.000000778769008 -7.346323617012855e-08 0
3.000000022707846 -1.577065692544873e-08 0
2.999999759292267 -2.33269058313332e-08 0
3.000000780393045 7.748289984997224e-08 0
2.999999999713095 4.39624021826381e-11 0
2.999999999999373 9.111339900175957e-14 0
3.000000000000002 -1.923836571061817e-16 0
3.000000000000004 2.088036054155697e-16 0
2.999997007261455 8.47519257071779e-07 0
2.999998270305128 9.01232166316705e-07 0
2.999999999998716 -5.990774926152046e-14 0
3.000000000331942 6.527700189882212e-12 0
2.999999770275427 9.565563442456449e-09 0
3.000009047520294 -2.913472372796419e-06 0
2.999999900944124 -1.171891915317558e-07 0
3.000000842130933 1.144767780764321e-08 0
2.999996832967422 1.0416339154116e-07 0
3.000000006846455 -2.773897375285764e-08 0
3.000000010342662 -2.754064117570711e-08 0
2.99999999578068 -1.731921381669412e-08 0
3.000000023927852 7.180821656045034e-09 0
2.999999995212935 2.496572174122937e-09 0
3.000000006146557 -2.556591264244949e-08 0
2.999999999915415 5.828386249790622e-09 0
2.999999996169506 -1.173423864843405e-09 0
3.000000000865966 -1.41797264564371e-09 0
2.999999997242553 6.068592575882876e-09 0
3.000000000315491 -8.615803127913795e-10 0
3.000000001037146 -1.26305592869368e-09 0
2.301434274921565 -0.006248125637095905 0
3.00034052431117 -2.400042397071814e-05 0
2.999999999687435 4.70186338795552e-10 0
3.000008334505713 -1.563760573211444e-06 0
2.999877856026461 1.339181621142526e-05 0
3.000000701630187 -2.161072625301232e-07 0
3.000263872928973 4.102854160397728e-05 0
3.000000000524375 -5.079002813369427e-10 0
3.000001315259023 -1.183858612274493e-08 0
2.999999755571963 4.108797649245134e-09 0
2.999992467697788 -1.508359870021478e-08 0
3.000011895921048 -1.167890652166577e-06 0
3.015878638636352 -0.002039651244485993 0
2.999999999618498 7.171734754992596e-09 0
3.000000881683624 1.819829643555807e-07 0
3.000000001380343 -1.736159703043998e-10 0
2.999999936028173 6.217631723375862e-09 0
3.000003497742576 -4.437903608499622e-07 0
2.999997627996499 4.970658077578631e-07 0
2.99999999999829 -2.373127343350131e-14 0
3.00000000003275 4.324262995935526e-11 0
2.999999999999733 -4.049944841382384e-15 0
3 -8.706341054595355e-17 0
3.000000000000003 -3.560942849068443e-16 0
3.000000000000108 1.074798661146718e-14 0
2.999999999998082 -6.302218099939675e-15 0
3.000000000000005 4.757151302061488e-17 0
3.000000000891341 -3.094691272329171e-11 0
2.999999999998733 2.548217669661828e-14 0
3 3.50636012008303e-17 0
3.000000173120973 -1.56189653810083e-08 0
3.000000000928308 -1.878014695939739e-11 0
3.000000000050754 -1.706563854942289e-11 0
3.00000000000003 1.957109402912512e-15 0
3 7.149323462312108e-16 0
3.000000004472418 2.895350895505744e-10 0
2.999999999999441 -6.830281242184262e-13 0
2.999999999999938 2.126898433827379e-14 0
2.999999999995265 5.981909204148118e-13 0
3 -8.100260328316229e-17 0
3 -8.94822776122831e-18 0
2.999999999999882 9.465403889516467e-14 0
2.99999999798611 1.022314579411618e-09 0
2.999999999999951 -1.004216754587741e-15 0
3.000000000000001 2.911381938713303e-17 0
3.000000000000011 -1.393435435268278e-15 0
2.999999999982572 2.706121594498545e-12 0
3.000000000231935 8.687150539177336e-12 0
3.000000000030997 -9.857355422948759e-13 0
3.000000011341787 -2.597176010470409e-09 0
2.999999911258183 -1.123513038682036e-08 0
3.000000015178235 -2.530089173273314e-08 0
2.999876398045506 1.892872930259851e-06 0
3.000984813009677 6.82474281604787e-05 0
2.99999998725677 3.472575318925198e-10 0
3.000000544872782 -6.601538978113853e-08 0
2.999999999862051 5.512905568370959e-10 0
2.999974114808253 0.0004257821334323079 0
2.999999932864822 -4.076975052003916e-09 0
3.000000000017125 -4.674234633528277e-11 0
2.999999995602522 4.448477171725593e-09 0
3.000000002075381 -1.508968525385773e-09 0
3.00003648511268 1.772157457797856e-07 0
3.000000776456986 -2.613835008354849e-08 0
2.999999804461345 1.05004508786986e-08 0
3.000000000419511 -1.743582165103387e-09 0
2.999999999991972 3.677198469252762e-11 0
2.999999957721597 9.121335853583492e-08 0
2.999955429434428 4.814915842703761e-06 0
3.000000000061022 -7.848154578625199e-11 0
3.000000126936455 -9.660601709115028e-07 0
3.000026350534833 -3.641355649877278e-06 0
2.999991181705992 1.218460053231375e-06 0
3.000001054802439 -1.84800855721472e-07 0
3.000012044373846 1.130293449324894e-06 0
2.999957542572515 -5.176641545175048e-06 0
3.004653552708251 0.0001288899267634083 0
2.996534110627388 -0.0001272983442257117 0
3.000000015063519 1.967274809797205e-07 0
2.999999999974784 3.09234422722124e-11 0
3.000001517590713 -4.310273969639374e-06 0
2.999993833162333 1.659916082644801e-05 0
3.000012206427102 -5.070339737036502e-06 0
3.000019676781836 2.094953780172661e-06 0
2.999999904551039 -2.24453641056967e-07 0
2.998174242853453 0.002860988563382987 0
2.999998253763546 9.983267349450866e-07 0
2.999999974931974 -1.664214502537989e-08 0
2.999999956185069 1.824644478745065e-08 0
3.000000013167223 2.13620028167313e-09 0
3.000002713459189 -3.453370694110773e-07 0
2.999999999992928 2.646148503534036e-12 0
2.999952445451144 1.52446910559338e-05 0
3.000002815768775 1.102207306115142e-05 0
3.000016430566984 -5.666408547158713e-05 0
2.999889873368248 -8.667027563652056e-06 0
2.999940794614213 -7.437627201158242e-08 0
3.000000000006885 -6.021781635784399e-12 0
3.000000000076755 -4.83620768746706e-11 0
2.999999774188202 1.917548010782253e-08 0
3.000000067910165 -5.745308670388074e-09 0
3.000000047087351 -2.619503929206204e-09 0
2.999999979275995 1.558226775841983e-09 0
2.999999991070948 4.5822675450332e-10 0
3.00000000611582 -4.409548490848298e-10 0
3.000000000354594 -1.280524041460405e-11 0
2.999999998807005 1.025642940896395e-10 0
3.000000000419823 -2.08749160331265e-11 0
3.000000000067453 -1.537520435882685e-11 0
2.999999999857309 7.477609077803711e-12 0
3.000000000035003 8.885850754543048e-13 0
3.000000000021366 -1.514065397549251e-12 0
2.999999999987232 2.660683300223479e-13 0
3.000000000000169 2.000647541620023e-13 0
3.00000000000199 -1.076112453891762e-13 0
2.999999999999113 -1.459307866399027e-14 0
3.000000000000008 2.366163547538524e-14 0
3.000000000000202 3.142376169887794e-16 0
2.999999999999915 -4.000652449188703e-15 0
2.999999999999992 -4.921916397349111e-16 0
3.000000000000021 7.398266092852097e-16 0
2.999999999999992 2.801941130371177e-16 0
2.999999999999998 -1.992440928363788e-16 0
3.000000000000004 -1.292685235965392e-16 0
2.999999999999999 6.089791037669561e-17 0
3 -2.282729396060467e-17 0
3.000000000000001 -4.778139130636182e-17 0
3 2.52902205557942e-17 0
3 6.225998185721708e-17 0
3 -3.858033468309107e-17 0
3 -6.891471806611847e-17 0
3 8.660599301672381e-17 0
3 1.082407913778023e-16 0
3.000000000000001 -3.060012041628962e-16 0
3 -2.126237809998956e-16 0
2.999999999999998 7.954663374693663e-16 0
3 -1.071290533860861e-16 0
3.000000000000003 -8.016319300146083e-16 0
2.999999999999996 1.780726793984845e-15 0
3.000000000000013 -3.844993161349606e-15 0
3.000000000000013 -7.54915234478079e-15 0
2.999999999999936 2.648251922126013e-14 0
2.999999999999975 1.729149822983296e-14 0
3.000000000000163 -8.883717242252154e-14 0
2.999999999999984 -9.620969000996387e-15 0
2.999999999999848 1.566524534380061e-13 0
3.000000000000194 -8.900839618224035e-14 0
2.999999999999423 8.221199984852735e-14 0
2.999999999999579 3.555406483863984e-13 0
3.000000000002681 -1.430085069256291e-12 0
2.999999999999814 -4.508053284659583e-13 0
2.99999999999651 3.924916884133188e-12 0
3.000000000003093 -1.119177033677621e-12 0
2.999999999991429 -1.399155636831168e-12 0
2.999999999994751 5.580177619489041e-12 0
3.000000000039098 -2.228795931006065e-11 0
2.999999999992319 -4.868982630614219e-12 0
2.999999999979229 5.577225120794196e-11 0
3.000000000034484 -2.200157697010116e-11 0
2.999999999846227 2.299643857499813e-11 0
2.999999999999023 5.629264336613089e-11 0
3.000000000237526 -3.184195598431179e-10 0
2.999999999867534 4.169868122721454e-11 0
3.000000000438774 2.251808088472679e-10 0
3.00000000003699 -2.61635326253165e-10 0
2.999999999139515 1.125505051985899e-09 0
3.000000000401708 -8.15134458807635e-11 0
2.999999998584087 -9.80370519840829e-10 0
3.00000000009476 8.364482688945212e-10 0
3.000000001385953 -3.324976521464714e-09 0
2.999999999067954 3.581107800750649e-10 0
3.00001566846821 -2.042245238212851e-06 0
2.999895371132006 9.073599549834192e-06 0
2.999999994432074 3.076269503477071e-09 0
2.999999996705024 2.128123382675029e-09 0
3.000008643322889 -1.351022027081707e-06 0
2.999986726904493 8.294522417187044e-07 0
3.00006180963971 -5.882291615222578e-06 0
3.000000004348589 1.38596640088959e-09 0
2.999999998671813 -1.67895486068123e-09 0
2.999999990407054 8.673646124456538e-09 0
2.999999617064111 5.422465523361083e-08 0
3.000304601755491 -6.266496212422692e-08 0
2.99988715965463 9.168600861905205e-06 0
3.000739166742019 5.335364976247215e-06 0
3.000033678485516 2.021622331683712e-06 0
2.999955998385215 -3.41147912552082e-06 0
2.999888448766408 -3.454959534501495e-06 0
3.000035169137478 5.581182890760117e-07 0
2.999936275135387 5.100206833711725e-06 0
3.00001866932419 -1.124098372843886e-06 0
3.000005618451755 2.18962165887733e-07 0
2.999998222404584 6.231840425685528e-08 0
2.999908128604672 -3.780539929055689e-06 0
2.999995946718973 9.267146856084288e-08 0
3.000000614463414 2.727640533515743e-08 0
3.000000425477521 -2.935563576377936e-07 0
2.999999545403348 7.371949385878992e-07 0
3.000000013208628 -5.374870513216743e-09 0
2.999999999893297 -1.256419733988315e-10 0
3.000000160178591 1.838120688925455e-09 0
3.00000000000003 -2.012974586096061e-14 0
3.080402863468685 -0.004730793581172155 0
3.000000965091957 5.569019430070071e-09 0
2.999999831111235 -1.860524453761146e-08 0
2.999999754115417 -3.523465039183818e-09 0
3.000000056361476 6.224755801090218e-09 0
3.000000058539009 6.074535756649671e-10 0
2.999999981554026 -1.556919881290136e-09 0
2.999999987565863 -8.299255893792463e-11 0
3.000000006012827 3.682658484995793e-10 0
3.000000001324128 -3.740988683343083e-11 0
2.999999998560938 -7.945085162055931e-11 0
3.000000000289037 2.090818688418607e-11 0
3.000000000148247 1.256874707184819e-11 0