<?xml version="1.0"?>
<VTKFile type="UnstructuredGrid">
  <UnstructuredGrid>
  <Piece NumberOfPoints="1224"  NumberOfCells="2290">
    <Points>
      <DataArray type="Float64" NumberOfComponents="3" format="ascii">
0 0 0
0.6 0 0
0.6 0.2 0
3 0.2 0
3 1 0
0 1 0
0.05454545454535233 0 0
0.1090909090906768 0 0
0.1636363636359771 0 0
0.2181818181812728 0 0
0.2727272727265793 0 0
0.3272727272720317 0 0
0.3818181818176247 0 0
0.4363636363632168 0 0
0.4909090909088285 0 0
0.5454545454544089 0 0
0.6 0.03999999999991203 0
0.6 0.07999999999979179 0
0.6 0.1199999999997886 0
0.6 0.1599999999998948 0
0.6510638297871261 0.2 0
0.7021276595742618 0.2 0
0.7531914893613819 0.2 0
0.8042553191485237 0.2 0
0.8553191489356438 0.2 0
0.9063829787228289 0.2 0
0.957446808509926 0.2 0
1.008510638297009 0.2 0
1.059574468084092 0.2 0
1.110638297871174 0.2 0
1.161702127658257 0.2 0
1.21276595744534 0.2 0
1.263829787232422 0.2 0
1.314893617019505 0.2 0
1.365957446806588 0.2 0
1.417021276593671 0.2 0
1.468085106380754 0.2 0
1.519148936167923 0.2 0
1.570212765955006 0.2 0
1.621276595742088 0.2 0
1.672340425529171 0.2 0
1.723404255316254 0.2 0
1.774468085103337 0.2 0
1.825531914890624 0.2 0
1.876595744677951 0.2 0
1.927659574465349 0.2 0
1.978723404252714 0.2 0
2.029787234040074 0.2 0
2.080851063827477 0.2 0
2.131914893614798 0.2 0
2.182978723402204 0.2 0
2.234042553189523 0.2 0
2.285106382976928 0.2 0
2.336170212764247 0.2 0
2.387234042551653 0.2 0
2.438297872338975 0.2 0
2.489361702126377 0.2 0
2.540425531913739 0.2 0
2.591489361701102 0.2 0
2.642553191488421 0.2 0
2.693617021275827 0.2 0
2.744680851063146 0.2 0
2.795744680850551 0.2 0
2.84680851063787 0.2 0
2.897872340425276 0.2 0
2.948936170212618 0.2 0
3 0.2533333333332341 0
3 0.3066666666664725 0
3 0.3599999999996274 0
3 0.413333333332804 0
3 0.4666666666659806 0
3 0.5199999999991571 0
3 0.5733333333323336 0
3 0.6266666666656895 0
3 0.6799999999991551 0
3 0.7333333333326146 0
3 0.7866666666660802 0
3 0.8399999999995775 0
3 0.8933333333330373 0
3 0.9466666666664969 0
2.949152542373491 1 0
2.898305084746983 1 0
2.847457627120474 1 0
2.796610169493702 1 0
2.745762711866469 1 0
2.694915254239208 1 0
2.644067796611963 1 0
2.593220338985156 1 0
2.542372881358647 1 0
2.491525423732018 1 0
2.44067796610481 1 0
2.389830508477549 1 0
2.338983050850287 1 0
2.288135593223026 1 0
2.237288135595765 1 0
2.186440677968504 1 0
2.135593220341243 1 0
2.084745762713982 1 0
2.033898305086721 1 0
1.983050847459614 1 0
1.932203389832729 1 0
1.881355932205844 1 0
1.830508474578958 1 0
1.779661016952073 1 0
1.728813559325189 1 0
1.677966101698303 1 0
1.627118644071418 1 0
1.576271186444533 1 0
1.525423728817648 1 0
1.474576271190575 1 0
1.423728813563314 1 0
1.372881355936053 1 0
1.322033898308791 1 0
1.27118644068153 1 0
1.220338983054269 1 0
1.169491525427008 1 0
1.118644067799747 1 0
1.067796610172485 1 0
1.016949152545224 1 0
0.9661016949179628 1 0
0.9152542372907018 1 0
0.8644067796634407 1 0
0.8135593220361792 1 0
0.7627118644089181 1 0
0.7118644067816566 1 0
0.661016949154396 1 0
0.6101694915271345 1 0
0.5593220338998739 1 0
0.5084745762726124 1 0
0.4576271186453518 1 0
0.4067796610180903 1 0
0.3559322033908292 1 0
0.3050847457635677 1 0
0.2542372881363066 1 0
0.2033898305090456 1 0
0.1525423728817841 1 0
0.101694915254523 1 0
0.05084745762726151 1 0
0 0.9473684210524125 0
0 0.8947368421048248 0
0 0.8421052631576025 0
0 0.7894736842105994 0
0 0.7368421052635962 0
0 0.6842105263165927 0
0 0.6315789473695894 0
0 0.5789473684225861 0
0 0.5263157894755828 0
0 0.4736842105282874 0
0 0.4210526315806998 0
0 0.3684210526331123 0
0 0.3157894736855248 0
0 0.2631578947379374 0
0 0.21052631579035 0
0 0.1578947368427625 0
0 0.1052631578951749 0
0 0.05263157894758741 0
0.4374856279758046 0.955462795473483 0
0.625531914893563 0.2394317949808221 0
0.7891616249544176 0.9557759867023439 0
2.570562443351098 0.9559758769411787 0
2.364406779663917 0.9559648099769389 0
2.161016949154874 0.9559648099769389 0
1.957627118646171 0.9559648099772646 0
1.756856606547665 0.9560078743553572 0
1.553415402058453 0.9561420672712786 0
1.347457627122422 0.95627738856474 0
1.144067796613377 0.9563034567995272 0
0.04146670856173688 0.5498854761242812 0
0.9828861012149002 0.2442383967812095 0
2.465390809289578 0.2421522008426663 0
2.259572257543314 0.243586373321511 0
2.055319178697841 0.24363095694403 0
1.851066099915384 0.2436741865527954 0
1.646810778591931 0.2437170671454607 0
1.442550972205278 0.2437587738062726 0
1.238275543433999 0.2442249255777628 0
0.5808319854219957 0.2417757800606361 0
0.6039807146029165 0.2785115072887754 0
2.951522810440164 0.5995349944823752 0
0.5591131416216563 0.2791940688436214 0
0.5817690965011905 0.3180386921514113 0
0.5363223429032008 0.3181181454258206 0
0.5590799034518541 0.3577335228902347 0
2.671507320584846 0.2416532643303031 0
0.5129751095268966 0.3576683284772433 0
0.5360042291720796 0.3976917483469583 0
0.5824744072527975 0.3977458985417416 0
0.5593202208963615 0.4382323507424581 0
0.6062221806132498 0.4382172989803606 0
0.5831398502988122 0.4790536480492864 0
0.630245509211025 0.4792447281197085 0
0.5373735766893435 0.4817209888486334 0
0.2780994584865757 0.9660670791366374 0
0.9407829849899363 0.9559852449915113 0
0.6069171020766708 0.5203953730037822 0
0.6544691944766102 0.5205851219036783 0
2.724115018794794 0.9563165682871465 0
0.04341732373162228 0.2894490564426765 0
0.6304562046384772 0.5622881188475496 0
0.6786259291441818 0.5621981517123112 0
0.03938236249337418 0.7091098825652095 0
0.2999999999993055 0.04723774929726795 0
0.7024556039582556 0.5200372393771872 0
0.726826368578132 0.562505099575485 0
0.6545296629344706 0.6041261864689124 0
0.6061411599039735 0.6041581669226386 0
2.954333097254252 0.4393531299125908 0
0.7512905139641642 0.5199435586712576 0
0.7757938242112172 0.5624873891767795 0
0.4902278874550028 0.3174350849704655 0
0.4661669324669476 0.3576870257641042 0
0.8003371868304782 0.5195844107098163 0
0.8251782158071723 0.5621174250913318 0
0.6300572939290072 0.6460588488486728 0
0.581677101888915 0.6462390077748084 0
0.7994632498085218 0.6067218912904607 0
0.850068894442807 0.6047738158182728 0
0.8747482025846163 0.5617915498272615 0
0.8998102571129438 0.6045430073239006 0
0.924588798996443 0.5614360364847856 0
0.9497125983499418 0.6046345614192383 0
0.9744389394813738 0.5613114208485291 0
0.9997656958801404 0.604758732930365 0
1.024028015453996 0.5597386087889248 0
1.050046148741532 0.6042836632406788 0
1.075213347289947 0.5607219500906248 0
1.100604808237692 0.6043040651294929 0
1.125727120818654 0.5598592244124957 0
1.151165990249003 0.6040638744783449 0
1.176319565514503 0.5595216793632644 0
1.201793840633129 0.6038781229769293 0
1.226960854257978 0.5600604284234054 0
1.252470704079807 0.6038664424080111 0
1.277198987313166 0.55874807111347 0
1.303148970446812 0.6035341865995129 0
1.328130525802366 0.5586520846649797 0
1.353966012915828 0.6034054551655909 0
1.379205474149696 0.558835304845746 0
1.404820923589671 0.6032503772964327 0
1.430092956912838 0.5587079795953892 0
1.455686300628245 0.6030926920218221 0
1.480963489515269 0.5580480170404921 0
1.506562983627252 0.6028436706904448 0
1.531847734917255 0.5577680566445021 0
1.557453558526421 0.6026435181305781 0
1.582745756648754 0.5575726351194972 0
1.608358176126191 0.6024617369905624 0
1.633656322435163 0.5573842056888257 0
1.659277805706528 0.6022873884346892 0
1.684577462424181 0.5572075399874397 0
1.710203504633815 0.6021111834258887 0
1.735506494091908 0.5570246051384745 0
1.761134606493805 0.6019307913070558 0
1.786441498808711 0.5568475628142857 0
1.812072359676459 0.6017522495250318 0
1.837381834584306 0.5566653603575672 0
1.863017119880456 0.601574020443024 0
1.888326681794851 0.5564884669211013 0
1.913963858781491 0.601395113412113 0
1.939274704592935 0.5563067813822595 0
1.964908406083961 0.6012129143420911 0
1.990224566339525 0.5561292537946573 0
2.015859329864652 0.601032757987411 0
2.041177190815608 0.5559477304122714 0
2.066818109147928 0.600855564813206 0
2.09213259478423 0.5557710179709322 0
2.117774443326183 0.6006760179252703 0
2.143088896138059 0.5555900146741853 0
2.168729305797513 0.6004921726308964 0
2.194045774061603 0.5554125217101814 0
2.219686577151481 0.6003111949874665 0
2.245003702950199 0.5552312296013228 0
2.270641766736839 0.6001298880828497 0
2.295962173634055 0.5550546947866846 0
2.321601310982481 0.599950595338254 0
2.346923922781879 0.5548708301001631 0
2.372568004594504 0.5997713467128002 0
2.397895756972162 0.5547000681173012 0
2.423546697517365 0.5996004731097838 0
2.448884659670238 0.5545095609010697 0
2.474538141419978 0.5994220729206983 0
2.499902931415869 0.5543494429014709 0
2.525546234724433 0.5993228147833797 0
2.550973655834774 0.5541346321759457 0
2.576685338327378 0.5992395038842441 0
2.602182482443039 0.5540180644105763 0
2.958944511946492 0.7598964409357507 0
2.628014314012249 0.5990918128353608 0
0.4429170888396284 0.3159793431387367 0
0.4184631156771032 0.357715436029677 0
0.3946070818022522 0.3157219358498637 0
0.3697276561976696 0.3576135465858128 0
2.449044355814981 0.643990885448769 0
2.24531935830005 0.6444881680698032 0
1.024857369602972 0.6487487015028032 0
2.041498164113345 0.6452136474256573 0
1.837701628146142 0.6459229900926835 0
0.3455853078837237 0.3150377509381005 0
0.3204780172155196 0.3574251905568473 0
0.3449438693484468 0.4002519798591844 0
1.633970683060678 0.6466170330762969 0
1.227333380683899 0.6479317947648683 0
1.430444030483603 0.6473399689389928 0
0.875196942148915 0.6483605753517908 0
0.6057010339261732 0.6883083412871458 0
0.5571396249147901 0.6885103796531055 0
2.653543252321963 0.5527758280498023 0
1.099471497978971 0.5148848291986879 0
2.602427017093663 0.6438096025956825 0
2.653851606946175 0.6437140715169269 0
1.353138019780104 0.5138574114565649 0
1.556762689169365 0.5115839513085039 0
1.760509743411542 0.5109012431757174 0
1.964341412665395 0.510388685431229 0
0.2953909602266698 0.4001745965167012 0
[...]
    <PointData>
      <DataArray type="Float64" NumberOfComponents="3" Name="Velocity" format="ascii">
3.000000013688376 0 0
0 0 0
0 0 0
3.233235243066999 0 0
3.233333198296307 0 0
3.000000000009647 0 0
2.999999982602241 0 0
2.999999948918083 0 0
3.000003602642308 0 0
2.999973176630472 0 0
2.999976912716422 0 0
3.001571173594975 0 0
3.000729192632716 0 0
2.857309471586515 0 0
2.027831535097707 0 0
0.6583749714062043 0 0
0 0.07815255337017521 0
0 0.1207291774763924 0
0 0.2276233792139893 0
0 0.3975121971588226 0
1.528234479330449 0 0
2.181273721930841 0 0
2.532975018467404 0 0
2.759263487865571 0 0
2.885482570643789 0 0
2.954209598147056 0 0
2.984201132754653 0 0
2.995415483053017 0 0
2.999197851480464 0 0
3.000038871086694 0 0
3.000067647645006 0 0
3.000031584066161 0 0
2.999997969607945 0 0
2.99999770604119 0 0
2.999999780763279 0 0
3.000000250732398 0 0
2.999999991003391 0 0
2.999999981735088 0 0
3.00000000551558 0 0
2.999999998796179 0 0
3.000000000245812 0 0
2.999999999952641 0 0
3.000000000008117 0 0
2.999999999999106 0 0
2.999999999999934 0 0
2.999999999998755 0 0
3.000000000004042 0 0
2.999999999994 0 0
3.000000000004554 0 0
2.999999999994506 0 0
3.000000000020361 0 0
2.999999999984591 0 0
2.999999999889389 0 0
3.000000000249444 0 0
3.00000000013709 0 0
2.999999998688456 0 0
3.000000004392855 0 0
2.999999992326717 0 0
2.999999928088075 0 0
3.000000383566555 0 0
3.000001823271606 0 0
2.999985188315484 0 0
2.999936612493062 0 0
3.000296144090422 0 0
3.005896506404139 0 0
3.051636410603421 0 0
3.234200484204022 0.001379112235693969 0
3.223832668497391 0.0007296901642127257 0
3.225065619685211 0.000649302147535177 0
3.225230461832871 -3.269372882793445e-05 0
3.227964862015759 -0.0003968254978755189 0
3.229967324154138 -0.0004912657860252426 0
3.227577159545144 -0.0001571128845604798 0
3.226711144447852 -0.0003540595754178398 0
3.230429796763947 6.026575096814047e-05 0
3.22853502239769 0.0001281696812058459 0
3.229556285105684 -9.428861914490394e-05 0
3.226044719466678 -0.0004951521107261029 0
3.223552913704943 -0.001566328651389784 0
3.234572072890776 -0.001174078464409736 0
3.047163001648271 0 0
3.006526679569395 0 0
3.000442387072594 0 0
2.999964911228072 0 0
2.999986478186324 0 0
3.000000778465732 0 0
3.000000418935428 0 0
2.999999952666246 0 0
2.99999999035064 0 0
3.000000003863541 0 0
2.999999998913044 0 0
3.000000000037461 0 0
3.000000000219972 0 0
2.999999999937951 0 0
2.999999999968007 0 0
3.000000000026063 0 0
2.999999999992166 0 0
3.000000000000079 0 0
3.000000000002887 0 0
2.999999999996005 0 0
3.000000000003557 0 0
2.999999999997788 0 0
3.000000000000956 0 0
2.999999999999755 0 0
2.999999999999998 0 0
3.000000000000018 0 0
2.999999999999969 0 0
3.000000000000225 0 0
2.999999999999588 0 0
2.999999999999632 0 0
3.00000000000211 0 0
2.99999999999971 0 0
2.999999999992085 0 0
3.000000000003334 0 0
3.000000000025508 0 0
2.999999999991322 0 0
2.999999999917684 0 0
2.999999999972462 0 0
3.000000000154558 0 0
3.000000000241658 0 0
3.000000000080222 0 0
2.9999999999083 0 0
2.999999999877194 0 0
2.999999999917058 0 0
3.000000000097683 0 0
3.000000000110515 0 0
2.999999999960343 0 0
2.999999999972787 0 0
3.000000000044614 0 0
3.000000000007482 0 0
2.999999999979911 0 0
3.000000000006873 0 0
3.000000000007956 0 0
2.999999999998753 0 0
2.999999999997165 0 0
3.000000000004323 0 0
2.999999999998501 0 0
3.000000000003229 0 0
3.000000000014602 0 0
2.999999999994379 0 0
2.999999999956458 0 0
3.000000000094999 0 0
3.000000000042432 0 0
3.000000000070042 0 0
3.000000000050896 0 0
3.000000000211385 0 0
3.000000001245138 0 0
2.999999999381429 0 0
2.99999999667883 0 0
2.99999999588865 0 0
2.999999999501107 0 0
3.000000006074814 0 0
3.000000020599054 0 0
3.000000024238008 0 0
3.000000007280426 0 0
3.000000004391672 0 0
3.000000000035738 7.827310214390302e-11 0
1.547058500351764 0.4627088882049101 0
2.999999999972275 1.586279096033215e-09 0
2.999999961313889 -1.92768631683812e-09 0
2.999999999694708 -2.444665179732351e-11 0
2.999999999987001 4.503179378205295e-13 0
2.99999999999818 -3.304409102077993e-13 0
3.000000000000401 -2.17571781581689e-13 0
2.999999999999606 9.679233795244262e-14 0
3.00000000000448 1.247594428881643e-12 0
3.000000000060173 4.895929754908621e-11 0
2.999999999663452 1.514660803960114e-10 0
2.992666965905217 0.003096992247136923 0
2.999999999268984 2.08454453039751e-10 0
3.000000000080966 -4.18902587508275e-12 0
3.000000000004325 -7.713943901042368e-13 0
2.999999999997074 4.154487495100229e-13 0
2.999999999373131 2.85643757999789e-12 0
3.00000011651177 -1.874263278215983e-09 0
3.000006694058361 -3.136095918910586e-07 0
1.643567730387439 0.5698622323110557 0
2.202608164522586 0.5078262482414553 0
3.064277914726224 -0.0002020767081732562 0
2.37887799833093 0.3615801018686942 0
2.649232870449686 0.2804860504461343 0
2.806265166962949 0.131395663368366 0
2.897024010559964 0.09135012980558736 0
3.000001234364746 -6.075063526977259e-08 0
2.962595607522055 0.02895077382064418 0
2.980858059598588 0.01875455597403733 0
2.953856075027117 0.05154138751239016 0
2.991906769093626 0.009833768122612836 0
2.982164328857369 0.02456760340169671 0
2.997171650028783 0.004253393179745468 0
2.994190033867639 0.009823978167646817 0
2.999242568276189 0.001121260216150866 0
2.999999999999692 -9.486481045455105e-12 0
2.999999999450826 2.284723891278799e-10 0
2.999244226283851 0.001434633803712382 0
2.998465961962296 0.003185684953991109 0
2.999995853675236 5.542670984353268e-07 0
3.000000002657343 -4.179503363454715e-12 0
2.999872572029782 0.0003248880818226002 0
2.999696521088203 0.000761320536996326 0
3.000000000043604 4.988413486963449e-11 0
3.000238212811376 -2.270157727579894e-05 0
2.99764323368066 0.006053519737129725 0
2.999526266226421 0.0014934338710286 0
2.999996324684699 2.683684590278858e-05 0
3.000007796037976 -2.900538196170746e-06 0
3.075117874100192 -0.0002761587810940977 0
2.998035262510602 0.007366072717235729 0
2.999664990696281 0.0016565636562243 0
2.941937023470734 0.03459868306853718 0
2.992844529745106 0.005319923252510266 0
2.999142786945248 0.006150652125799268 0
2.999892511537392 0.001232803138005765 0
3.000006122659777 -1.28951658602153e-05 0
3.000003117311998 -6.965528315849362e-06 0
2.999955222340125 0.0002069542660813564 0
2.999978045675111 0.0001293585807396357 0
3.000015300825433 0.0007003275019276878 0
2.999987409430394 5.058336103726734e-05 0
3.000037067631329 0.0002844408701119016 0
2.999990043630459 5.198149006518401e-06 0
3.000009929197747 5.630319955964402e-05 0
2.999990610979524 -1.07737725067695e-05 0
2.999989675678885 -1.117878802230473e-05 0
2.9999941996117 -6.961427118627203e-06 0
2.999986852982282 -1.322726433579061e-05 0
2.999998454575862 -1.230552386431668e-06 0
2.999993930885509 -3.155444407308564e-06 0
3.000000574822147 5.43012942412141e-07 0
2.999999445034616 6.223801479607388e-07 0
3.000000682240722 2.767022539261527e-07 0
3.000000789701921 4.139059536250718e-07 0
3.000000183503488 -2.91101037718158e-08 0
3.000000313257034 -9.234118931348371e-08 0
2.999999928756202 -3.164621517076678e-08 0
2.999999950486006 -5.040495521110391e-08 0
2.999999973951951 1.387937751261143e-08 0
2.999999959705968 2.282052281497272e-08 0
3.000000012472467 -1.182726040126617e-09 0
3.000000004377678 1.932531425444848e-09 0
3.000000000686164 -2.243065319275968e-09 0
3.000000003653295 -3.279782553108028e-09 0
2.999999998733299 9.749659978380292e-10 0
2.999999998816019 8.713693116277034e-10 0
3.000000000209772 -1.253888400511801e-10 0
3.000000000063012 -7.60558008194887e-11 0
3.000000000061614 -3.488579834509263e-11 0
3.000000000069395 -2.481041904408685e-11 0
2.999999999955532 2.550696912884812e-11 0
2.999999999964993 1.533523641762078e-11 0
3.000000000014046 -9.101939950148718e-12 0
3.000000000011162 -5.376111138801364e-12 0
2.99999999999718 2.474256590851165e-12 0
2.99999999999696 1.613757812212962e-12 0
3.000000000000269 -5.729329058763606e-13 0
3.00000000000103 -4.646513705551424e-13 0
2.999999999999614 1.090476877665264e-13 0
2.999999999999566 6.760736517548041e-14 0
3.000000000001549 2.064248730044654e-14 0
2.999999999999211 1.967964675501951e-13 0
2.999999999997298 -2.850615581118396e-14 0
3.00000000000334 -4.727406420875311e-13 0
3.000000000002053 -1.742784897650993e-13 0
2.999999999993796 6.909498087246807e-13 0
3.000000000001727 5.435342359997945e-13 0
3.000000000007621 -6.74156057978957e-13 0
2.999999999991981 -6.130379451957981e-13 0
2.999999999992026 2.780820778471048e-13 0
3.000000000018162 -1.810999536181382e-13 0
3.000000000004756 3.87458196443802e-13 0
2.999999999963251 1.415545726784306e-12 0
3.000000000027478 -9.94427707043006e-13 0
3.000000000028347 -1.774276767915343e-12 0
2.99999999990679 1.610306505116323e-12 0
3.000000000114209 1.012914984731674e-12 0
2.999999999983151 -2.876675329579009e-12 0
2.999999999742914 1.67081230602309e-12 0
3.000000000544971 1.845818156226772e-13 0
2.999999999715645 -6.998467444616676e-12 0
2.999999998910641 2.797892116502273e-11 0
3.000000001969568 1.414199317589315e-11 0
3.000000003332849 -1.575993203210766e-10 0
2.999999994883542 -8.752772100719814e-11 0
2.999999975546783 6.63700666735707e-10 0
2.999999976416887 9.659822780664596e-10 0
3.000000040054012 3.154497438332703e-09 0
3.084763187398604 4.917155370835152e-05 0
3.00000030458715 -1.258600227549281e-09 0
2.991131498884661 0.005207940583548037 0
2.999584266815072 0.00044041822967603 0
3.000246964719317 2.030748108686407e-05 0
3.000159826063965 -6.988369734475263e-05 0
2.999999998914988 -2.178903339277865e-11 0
3.000000000027498 8.490263044853512e-13 0
2.999998825199821 -2.540458524370559e-06 0
2.999999999992582 -1.13116213369317e-12 0
3.000000000001005 3.663667336734004e-14 0
3.00016687175259 -6.285554271005953e-05 0
3.000007033956686 -6.032746975332834e-06 0
3.000018172462404 -1.256191351879088e-05 0
2.999999999967015 2.215086200989901e-11 0
3.000000010158858 -1.444121884274971e-08 0
2.999999997658493 -5.295155104714477e-10 0
2.99999254534527 -1.046437774691806e-05 0
3.000000400064547 -1.616493274136698e-06 0
2.999999856572545 -1.580625789925631e-07 0
3.000000591912159 -2.867135444749006e-08 0
2.999984150427349 -1.851790544090258e-05 0
3.000000042034012 -2.041813283555216e-09 0
3.000000554145119 6.111662754087185e-09 0
3.000000013702106 -6.308494487451703e-08 0
2.999999998942569 8.008286982299073e-10 0
3.000000000008279 -1.237989509574766e-12 0
2.999999999997898 5.297354899356668e-13 0
2.999996891599471 1.137513000363149e-06 0
2.999999544893496 -6.676653756575686e-07 0
3.000000000012889 -1.649772690411779e-12 0
2.999999999753777 1.119700714676316e-12 0
2.999999969028422 1.131150800343816e-09 0
2.9948733052977 0.02190969679310938 0
3.00025062500649 0.0007765199174233702 0
3.000000297185932 -4.112678581130219e-09 0
3.000000087304557 4.405488744224911e-08 0
2.999999850335991 2.87770989134699e-07 0
2.999999850538319 2.73157296049441e-07 0
2.999999926561958 1.74153365900455e-07 0
2.999999786004814 2.39860606568556e-07 0
2.999999999652799 3.624111742878494e-08 0
2.999999921453232 1.454325889023474e-07 0
3.000000016041458 -1.356643299724192e-08 0
3.000000018650046 6.283428833112615e-09 0
3.000000003385372 -8.811778093157953e-09 0
3.00000001480828 -1.668331659453896e-08 0
2.999999997440766 1.530996470971713e-09 0
2.999999998982009 -2.936354450639509e-09 0
0.4732763846909728 0.2609637657360143 0
2.992876893222524 0.003185264245674036 0
3.000000000333739 7.896974030523225e-10 0
2.999988040268901 1.564008347545283e-06 0
3.000051315611852 4.258444650226615e-05 0
2.999999533187931 2.435592996515654e-07 0
2.85776757285277 0.06191848131486643 0
2.999999998141341 2.52466948168112e-09 0
3.00000059670229 -6.242603495128609e-09 0
3.000000029602803 -1.32550926085934e-09 0
2.999997896374537 5.85227906256354e-08 0
2.99998946404675 3.792674721153087e-07 0
2.442220828598555 0.177054606918334 0
2.999999998237186 2.928589565825521e-08 0
2.999999257643303 2.868570505880627e-07 0
3.000000000208478 -4.040844510807988e-10 0
2.999999995975428 1.370435882425409e-09 0
3.000104169729933 -2.997486082650647e-05 0
2.999983739861462 3.03877258290901e-06 0
3.000000000019043 2.84396094918231e-12 0
2.999999999631971 1.155219145411746e-09 0
2.999999999985838 1.195452418912608e-12 0
3.000000000000571 -3.56454979770994e-13 0
2.999999999996255 3.029658669290762e-12 0
3.000000000415489 -2.144598955389875e-10 0
3.000000000002011 -7.195040204729557e-13 0
2.999999999998368 -1.161869151940474e-13 0
2.999999999598266 2.937683944282315e-11 0
3.000000001157464 -5.117465330038174e-10 0
2.99999999996322 4.011159834272982e-13 0
2.999932673316963 -1.891154303209632e-05 0
2.999999222973694 4.224747065236702e-08 0
2.999999987799156 5.9837798935431e-09 0
2.99999999999173 3.986847767952498e-13 0
3.00000000000003 -2.970022371969484e-13 0
2.999999999474205 -1.127421702544628e-10 0
2.999999999996591 -2.079556765821695e-10 0
2.999999999979539 -1.027101325954526e-11 0
3.000000000062966 4.879903937309648e-12 0
3.00000000000013 -2.33118752832313e-14 0
3.000000000000904 -6.131095908796849e-13 0
2.999999999998336 -5.936835006961729e-12 0
3.000000611339777 3.899076613563092e-07 0
3.000000000001418 -6.996607306973595e-13 0
3.000000000000217 1.063938242478468e-13 0
3.000000000036384 1.057464960894671e-11 0
2.999999996525436 3.833941181152351e-09 0
2.999999999990849 -2.235612125793722e-12 0
3.000000000026761 -1.228760261339823e-12 0
2.999998134850665 1.225830698423508e-06 0
2.999999953141571 1.763944220108495e-09 0
2.999999988832081 6.112901530312897e-08 0
3.000115295942696 -2.852574317555091e-05 0
2.980672737365444 -0.0002022021613906209 0
3.00000000201913 7.226695530662331e-12 0
2.999999827094715 1.28559774969883e-07 0
2.999999998941195 2.117511936470439e-09 0
2.924757255895551 0.09876848026754369 0
2.999999998644333 3.295288037982729e-09 0
3.000000000196029 -6.522425225247133e-10 0
3.000000005449762 -8.965706983031816e-09 0
2.999999996304854 2.454742023845155e-09 0
2.999980580259447 3.29300790364584e-07 0
3.000000276690612 -6.709406538065468e-09 0
2.999999972047524 1.111334117209424e-09 0
3.000000005341341 -1.048817474574535e-08 0
3.000000000139235 -4.025829298196459e-10 0
2.999999671912605 4.866287467526681e-08 0
2.999987573551665 -3.376801530419993e-07 0
2.999999999687728 8.17642703525324e-11 0
3.000016709916522 -1.162601712506099e-05 0
3.00000726113737 -4.492732819029309e-06 0
2.999987376970957 2.744587307802833e-06 0
2.999998440970458 7.193001917803332e-07 0
2.999990205435739 -1.588207367270119e-08 0
2.99998875523727 2.196930994666618e-08 0
3.075430559781132 0.001035720930645507 0
3.060302706008233 -0.001030862672999539 0
2.99999968016118 -9.217676172474901e-07 0
3.00000000009616 4.285751578934091e-11 0
2.99853581583171 0.01571374874992704 0
2.989948199033712 0.04592080314068751 0
2.998114577731339 0.02832658486376213 0
2.99997825787078 4.017332157932922e-07 0
3.000007187225062 -1.890996935430979e-05 0
2.136453076431442 0.3594056317108876 0
3.00001071183843 -1.058521966858276e-05 0
3.000000060115614 -2.842827380429161e-08 0
3.000000030255983 -8.489619359800544e-09 0
3.000000033625533 -1.198564504915959e-08 0
3.000000412852134 3.426051024353521e-08 0
3.000000000045102 -1.030675084957021e-10 0
2.983349676294109 0.06792646781135642 0
2.996099529678728 0.03887857299327745 0
2.958722024987491 0.1054455821244801 0
3.000108093954423 -5.324339678476835e-06 0
2.999989917457205 1.013590303133042e-06 0
2.999999999991396 3.059726136527978e-11 0
2.999999999840486 2.910669606622062e-10 0
3.000000028271044 -1.606196275916419e-09 0
2.999999979645308 7.983233069282043e-10 0
2.999999996049501 1.58577853537933e-10 0
3.000000003581948 -1.131974730221799e-10 0
3.000000001694346 -6.566060373109308e-11 0
2.999999998733891 3.08295275628825e-11 0
2.99999999987417 1.79131732660879e-12 0
3.000000000463773 1.089750252535686e-12 0
2.999999999696827 -1.033547030166302e-11 0
3.000000000049168 1.56268972602886e-11 0
3.000000000097954 2.165157804827594e-12 0
2.999999999911401 -9.508798879897367e-12 0
3.000000000043819 3.31385736740682e-12 0
3.000000000006172 -4.406055976168332e-12 0
2.99999999996021 4.403135718577901e-13 0
3.000000000023232 5.182627305319466e-12 0
3.000000000011014 -1.8348792719266e-12 0
2.999999999979024 -1.5417251012645e-12 0
3.000000000004915 9.904747847780003e-13 0
3.000000000012626 1.271462833193998e-13 0
2.999999999989328 -8.525154113790434e-13 0
2.999999999995471 7.787673538071155e-14 0
3.000000000009876 1.074534238422434e-12 0
2.999999999999401 -4.30212146677423e-13 0
2.999999999994036 -7.466339670732918e-13 0
3.000000000002064 7.171310241069118e-13 0
3.000000000002299 1.108152406032745e-13 0
2.999999999998578 -6.624602436002063e-13 0
2.999999999999658 2.952068844578636e-13 0
3.000000000000444 3.952241327197171e-13 0
2.999999999999852 -3.642462476205499e-13 0
3.000000000000185 -1.684963043993767e-13 0
2.999999999999696 3.819669033238182e-13 0
2.999999999999501 1.022376077279786e-13 0
3.000000000001011 -5.71871292671938e-13 0
2.999999999999839 7.378846656230342e-15 0
3.000000000001526 3.425814934786328e-13 0
3.000000000003631 -5.268100128971188e-13 0
2.999999999985147 1.891537741676273e-12 0
2.999999999989989 1.229470046327966e-12 0
3.000000000038216 -5.614360682278378e-12 0
3.000000000011519 -1.028189290448317e-12 0
2.999999999959924 6.258125245124443e-12 0
3.000000000019027 -1.254360688632392e-12 0
2.999999999924533 -3.861155326745271e-12 0
2.99999999988654 4.960256757674619e-12 0
3.000000000464787 -9.244288642715133e-12 0
3.000000000120792 1.003577528741431e-11 0
2.999999999424308 -1.394829873740143e-11 0
3.000000000356548 9.929624107442853e-13 0
2.999999998461504 -1.436196057130352e-10 0
2.999999999142009 -1.441382848851688e-10 0
3.000000003792924 9.118359966886996e-10 0
2.999999999047904 1.258745262308726e-10 0
3.000000006117864 8.670562268770256e-10 0
3.000000003130177 1.261898826720937e-09 0
2.999999992757704 -6.32651493855403e-09 0
3.000000004962952 -2.466186142024488e-11 0
2.99999997015341 -1.48732574101694e-08 0
2.999999998010991 -7.103129586135729e-09 0
2.999999965669558 2.913122789909846e-09 0
2.999999981770675 -1.601219531292954e-08 0
2.999999993787927 6.251361457820938e-08 0
2.999999972476543 -1.0978825978626e-08 0
3.000000043903823 1.695130039142742e-07 0
2.999999975414573 1.816892738539183e-08 0
3.000000109169646 2.980339686258013e-07 0
2.999999986159621 7.475075725012172e-08 0
3.000000112673562 3.440615607187177e-07 0
2.99999998555392 1.238962647212778e-07 0
3.000000082459635 2.93269249775851e-07 0
2.999999972870616 1.28964479885625e-07 0
2.999980409114752 -2.732091694325234e-07 0
3.000089137586532 -2.956993559262902e-06 0
3.000000014350061 -1.524855271061338e-08 0
2.999999996163114 5.857915442708767e-10 0
2.999963268845515 5.146115645869937e-06 0
3.000374719823514 -6.418354250005984e-05 0
3.000508284775773 -1.215255276542624e-05 0
2.999999990685732 3.713172691760346e-07 0
2.999999973782101 8.454358083111213e-08 0
3.000000523119377 -1.678580741153346e-06 0
3.000000612594568 -1.65253448431042e-07 0
3.000648929771996 1.396120508260586e-06 0
3.000088663601257 4.739547351673215e-06 0
3.002061789103245 3.586751071309326e-05 0
3.000498817888889 -1.859213753787025e-05 0
2.999984277098698 -1.892257461343256e-07 0
3.000084584812091 -1.056441737074814e-05 0
2.999977179006815 4.927577729510266e-07 0
2.999987669888353 2.349194288420135e-07 0
2.999986916329304 7.66862887081467e-07 0
2.99996890148711 2.480937610329379e-07 0
2.999996670431059 -1.397618154969852e-07 0
3.000090688403847 -1.930114105894195e-06 0
3.000000077302882 6.62769133322529e-08 0
3.000000606627216 3.238104610249151e-09 0
2.999999047706572 -8.81361493614982e-08 0
3.000004250333864 -6.337677650854875e-06 0
2.999999995107452 2.018735827021968e-10 0
2.999999991264977 -1.440972395399681e-08 0
2.999999839275404 5.45514017407649e-09 0
3.000000000007699 9.024299807347662e-12 0
1.202137449172569 0.02601617825794691 0
3.000000340288111 -4.242342575040355e-10 0
3.000000042600786 6.23548503499393e-09 0
2.999999968461 -1.672887776944375e-09 0
2.999999976218584 -1.168758177871597e-09 0