<?xml version="1.0"?>
<VTKFile type="UnstructuredGrid">
  <UnstructuredGrid>
  <Piece NumberOfPoints="1224"  NumberOfCells="2290">
    <Points>
      <DataArray type="Float64" NumberOfComponents="3" format="ascii">
0 0 0
0.6 0 0
0.6 0.2 0
3 0.2 0
3 1 0
0 1 0
0.05454545454535233 0 0
0.1090909090906768 0 0
0.1636363636359771 0 0
0.2181818181812728 0 0
0.2727272727265793 0 0
0.3272727272720317 0 0
0.3818181818176247 0 0
0.4363636363632168 0 0
0.4909090909088285 0 0
0.5454545454544089 0 0
0.6 0.03999999999991203 0
0.6 0.07999999999979179 0
0.6 0.1199999999997886 0
0.6 0.1599999999998948 0
0.6510638297871261 0.2 0
0.7021276595742618 0.2 0
0.7531914893613819 0.2 0
0.8042553191485237 0.2 0
0.8553191489356438 0.2 0
0.9063829787228289 0.2 0
0.957446808509926 0.2 0
1.008510638297009 0.2 0
1.059574468084092 0.2 0
1.110638297871174 0.2 0
1.161702127658257 0.2 0
1.21276595744534 0.2 0
1.263829787232422 0.2 0
1.314893617019505 0.2 0
1.365957446806588 0.2 0
1.417021276593671 0.2 0
1.468085106380754 0.2 0
1.519148936167923 0.2 0
1.570212765955006 0.2 0
1.621276595742088 0.2 0
1.672340425529171 0.2 0
1.723404255316254 0.2 0
1.774468085103337 0.2 0
1.825531914890624 0.2 0
1.876595744677951 0.2 0
1.927659574465349 0.2 0
1.978723404252714 0.2 0
2.029787234040074 0.2 0
2.080851063827477 0.2 0
2.131914893614798 0.2 0
2.182978723402204 0.2 0
2.234042553189523 0.2 0
2.285106382976928 0.2 0
2.336170212764247 0.2 0
2.387234042551653 0.2 0
2.438297872338975 0.2 0
2.489361702126377 0.2 0
2.540425531913739 0.2 0
2.591489361701102 0.2 0
2.642553191488421 0.2 0
2.693617021275827 0.2 0
2.744680851063146 0.2 0
2.795744680850551 0.2 0
2.84680851063787 0.2 0
2.897872340425276 0.2 0
2.948936170212618 0.2 0
3 0.2533333333332341 0
3 0.3066666666664725 0
3 0.3599999999996274 0
3 0.413333333332804 0
3 0.4666666666659806 0
3 0.5199999999991571 0
3 0.5733333333323336 0
3 0.6266666666656895 0
3 0.6799999999991551 0
3 0.7333333333326146 0
3 0.7866666666660802 0
3 0.8399999999995775 0
3 0.8933333333330373 0
3 0.9466666666664969 0
2.949152542373491 1 0
2.898305084746983 1 0
2.847457627120474 1 0
2.796610169493702 1 0
2.745762711866469 1 0
2.694915254239208 1 0
2.644067796611963 1 0
2.593220338985156 1 0
2.542372881358647 1 0
2.491525423732018 1 0
2.44067796610481 1 0
2.389830508477549 1 0
2.338983050850287 1 0
2.288135593223026 1 0
2.237288135595765 1 0
2.186440677968504 1 0
2.135593220341243 1 0
2.084745762713982 1 0
2.033898305086721 1 0
1.983050847459614 1 0
1.932203389832729 1 0
1.881355932205844 1 0
1.830508474578958 1 0
1.779661016952073 1 0
1.728813559325189 1 0
1.677966101698303 1 0
1.627118644071418 1 0
1.576271186444533 1 0
1.525423728817648 1 0
1.474576271190575 1 0
1.423728813563314 1 0
1.372881355936053 1 0
1.322033898308791 1 0
1.27118644068153 1 0
1.220338983054269 1 0
1.169491525427008 1 0
1.118644067799747 1 0
1.067796610172485 1 0
1.016949152545224 1 0
0.9661016949179628 1 0
0.9152542372907018 1 0
0.8644067796634407 1 0
0.8135593220361792 1 0
0.7627118644089181 1 0
0.7118644067816566 1 0
0.661016949154396 1 0
0.6101694915271345 1 0
0.5593220338998739 1 0
0.5084745762726124 1 0
0.4576271186453518 1 0
0.4067796610180903 1 0
0.3559322033908292 1 0
0.3050847457635677 1 0
0.2542372881363066 1 0
0.2033898305090456 1 0
0.1525423728817841 1 0
0.101694915254523 1 0
0.05084745762726151 1 0
0 0.9473684210524125 0
0 0.8947368421048248 0
0 0.8421052631576025 0
0 0.7894736842105994 0
0 0.7368421052635962 0
0 0.6842105263165927 0
0 0.6315789473695894 0
0 0.5789473684225861 0
0 0.5263157894755828 0
0 0.4736842105282874 0
0 0.4210526315806998 0
0 0.3684210526331123 0
0 0.3157894736855248 0
0 0.2631578947379374 0
0 0.21052631579035 0
0 0.1578947368427625 0
0 0.1052631578951749 0
0 0.05263157894758741 0
0.4374856279758046 0.955462795473483 0
0.625531914893563 0.2394317949808221 0
0.7891616249544176 0.9557759867023439 0
2.570562443351098 0.9559758769411787 0
2.364406779663917 0.9559648099769389 0
2.161016949154874 0.9559648099769389 0
1.957627118646171 0.9559648099772646 0
1.756856606547665 0.9560078743553572 0
1.553415402058453 0.9561420672712786 0
1.347457627122422 0.95627738856474 0
1.144067796613377 0.9563034567995272 0
0.04146670856173688 0.5498854761242812 0
0.9828861012149002 0.2442383967812095 0
2.465390809289578 0.2421522008426663 0
2.259572257543314 0.243586373321511 0
2.055319178697841 0.24363095694403 0
1.851066099915384 0.2436741865527954 0
1.646810778591931 0.2437170671454607 0
1.442550972205278 0.2437587738062726 0
1.238275543433999 0.2442249255777628 0
0.5808319854219957 0.2417757800606361 0
0.6039807146029165 0.2785115072887754 0
2.951522810440164 0.5995349944823752 0
0.5591131416216563 0.2791940688436214 0
0.5817690965011905 0.3180386921514113 0
0.5363223429032008 0.3181181454258206 0
0.5590799034518541 0.3577335228902347 0
2.671507320584846 0.2416532643303031 0
0.5129751095268966 0.3576683284772433 0
0.5360042291720796 0.3976917483469583 0
0.5824744072527975 0.3977458985417416 0
0.5593202208963615 0.4382323507424581 0
0.6062221806132498 0.4382172989803606 0
0.5831398502988122 0.4790536480492864 0
0.630245509211025 0.4792447281197085 0
0.5373735766893435 0.4817209888486334 0
0.2780994584865757 0.9660670791366374 0
0.9407829849899363 0.9559852449915113 0
0.6069171020766708 0.5203953730037822 0
0.6544691944766102 0.5205851219036783 0
2.724115018794794 0.9563165682871465 0
0.04341732373162228 0.2894490564426765 0
0.6304562046384772 0.5622881188475496 0
0.6786259291441818 0.5621981517123112 0
0.03938236249337418 0.7091098825652095 0
0.2999999999993055 0.04723774929726795 0
0.7024556039582556 0.5200372393771872 0
0.726826368578132 0.562505099575485 0
0.6545296629344706 0.6041261864689124 0
0.6061411599039735 0.6041581669226386 0
2.954333097254252 0.4393531299125908 0
0.7512905139641642 0.5199435586712576 0
0.7757938242112172 0.5624873891767795 0
0.4902278874550028 0.3174350849704655 0
0.4661669324669476 0.3576870257641042 0
0.8003371868304782 0.5195844107098163 0
0.8251782158071723 0.5621174250913318 0
0.6300572939290072 0.6460588488486728 0
0.581677101888915 0.6462390077748084 0
0.7994632498085218 0.6067218912904607 0
0.850068894442807 0.6047738158182728 0
0.8747482025846163 0.5617915498272615 0
0.8998102571129438 0.6045430073239006 0
0.924588798996443 0.5614360364847856 0
0.9497125983499418 0.6046345614192383 0
0.9744389394813738 0.5613114208485291 0
0.9997656958801404 0.604758732930365 0
1.024028015453996 0.5597386087889248 0
1.050046148741532 0.6042836632406788 0
1.075213347289947 0.5607219500906248 0
1.100604808237692 0.6043040651294929 0
1.125727120818654 0.5598592244124957 0
1.151165990249003 0.6040638744783449 0
1.176319565514503 0.5595216793632644 0
1.201793840633129 0.6038781229769293 0
1.226960854257978 0.5600604284234054 0
1.252470704079807 0.6038664424080111 0
1.277198987313166 0.55874807111347 0
1.303148970446812 0.6035341865995129 0
1.328130525802366 0.5586520846649797 0
1.353966012915828 0.6034054551655909 0
1.379205474149696 0.558835304845746 0
1.404820923589671 0.6032503772964327 0
1.430092956912838 0.5587079795953892 0
1.455686300628245 0.6030926920218221 0
1.480963489515269 0.5580480170404921 0
1.506562983627252 0.6028436706904448 0
1.531847734917255 0.5577680566445021 0
1.557453558526421 0.6026435181305781 0
1.582745756648754 0.5575726351194972 0
1.608358176126191 0.6024617369905624 0
1.633656322435163 0.5573842056888257 0
1.659277805706528 0.6022873884346892 0
1.684577462424181 0.5572075399874397 0
1.710203504633815 0.6021111834258887 0
1.735506494091908 0.5570246051384745 0
1.761134606493805 0.6019307913070558 0
1.786441498808711 0.5568475628142857 0
1.812072359676459 0.6017522495250318 0
1.837381834584306 0.5566653603575672 0
1.863017119880456 0.601574020443024 0
1.888326681794851 0.5564884669211013 0
1.913963858781491 0.601395113412113 0
1.939274704592935 0.5563067813822595 0
1.964908406083961 0.6012129143420911 0
1.990224566339525 0.5561292537946573 0
2.015859329864652 0.601032757987411 0
2.041177190815608 0.5559477304122714 0
2.066818109147928 0.600855564813206 0
2.09213259478423 0.5557710179709322 0
2.117774443326183 0.6006760179252703 0
2.143088896138059 0.5555900146741853 0
2.168729305797513 0.6004921726308964 0
2.194045774061603 0.5554125217101814 0
2.219686577151481 0.6003111949874665 0
2.245003702950199 0.5552312296013228 0
2.270641766736839 0.6001298880828497 0
2.295962173634055 0.5550546947866846 0
2.321601310982481 0.599950595338254 0
2.346923922781879 0.5548708301001631 0
2.372568004594504 0.5997713467128002 0
2.397895756972162 0.5547000681173012 0
2.423546697517365 0.5996004731097838 0
2.448884659670238 0.5545095609010697 0
2.474538141419978 0.5994220729206983 0
2.499902931415869 0.5543494429014709 0
2.525546234724433 0.5993228147833797 0
2.550973655834774 0.5541346321759457 0
2.576685338327378 0.5992395038842441 0
2.602182482443039 0.5540180644105763 0
2.958944511946492 0.7598964409357507 0
2.628014314012249 0.5990918128353608 0
0.4429170888396284 0.3159793431387367 0
0.4184631156771032 0.357715436029677 0
0.3946070818022522 0.3157219358498637 0
0.3697276561976696 0.3576135465858128 0
2.449044355814981 0.643990885448769 0
2.24531935830005 0.6444881680698032 0
1.024857369602972 0.6487487015028032 0
2.041498164113345 0.6452136474256573 0
1.837701628146142 0.6459229900926835 0
0.3455853078837237 0.3150377509381005 0
0.3204780172155196 0.3574251905568473 0
0.3449438693484468 0.4002519798591844 0
1.633970683060678 0.6466170330762969 0
1.227333380683899 0.6479317947648683 0
1.430444030483603 0.6473399689389928 0
0.875196942148915 0.6483605753517908 0
0.6057010339261732 0.6883083412871458 0
0.5571396249147901 0.6885103796531055 0
2.653543252321963 0.5527758280498023 0
1.099471497978971 0.5148848291986879 0
2.602427017093663 0.6438096025956825 0
2.653851606946175 0.6437140715169269 0
1.353138019780104 0.5138574114565649 0
1.556762689169365 0.5115839513085039 0
1.760509743411542 0.5109012431757174 0
1.964341412665395 0.510388685431229 0
0.2953909602266698 0.4001745965167012 0
[...]
    <PointData>
      <DataArray type="Float64" NumberOfComponents="3" Name="Velocity" format="ascii">
3.00000000544491 0 0
0 0 0
0 0 0
3.227631444062743 0 0
3.228000853035823 0 0
3.000000000000533 0 0
3.000000040943877 0 0
2.999999464069847 0 0
3.000001939685919 0 0
3.000006722647272 0 0
2.999870692946719 0 0
3.000248810851389 0 0
3.007407079547069 0 0
2.968349710370413 0 0
2.42910847196627 0 0
0.9956955467058519 0 0
0 0.04656096914687376 0
0 0.0653395086673751 0
0 0.1642745368758046 0
0 0.3301705280568159 0
1.613955613889486 0 0
2.301608377519246 0 0
2.659236387589275 0 0
2.858715817707705 0 0
2.950236240617761 0 0
2.987003317253445 0 0
2.997677584495664 0 0
3.000147977425898 0 0
3.000197444852105 0 0
3.000059793993882 0 0
2.999986718439915 0 0
2.999996117034663 0 0
3.000000593812636 0 0
3.000000391049342 0 0
2.999999882664901 0 0
2.999999994398312 0 0
3.00000001139125 0 0
2.999999996210438 0 0
3.000000000990446 0 0
2.999999999744234 0 0
3.000000000066365 0 0
2.999999999983364 0 0
3.000000000003845 0 0
2.999999999999325 0 0
2.999999999999999 0 0
2.999999999999666 0 0
3.000000000001626 0 0
2.999999999996819 0 0
3.000000000001905 0 0
3.000000000005193 0 0
2.999999999993078 0 0
2.999999999971501 0 0
3.000000000059277 0 0
3.000000000175494 0 0
2.999999999276223 0 0
3.00000000119774 0 0
2.999999995227232 0 0
3.000000030575941 0 0
2.999999914511974 0 0
2.999999691239348 0 0
3.000003097860419 0 0
3.000003221252593 0 0
2.999907753780172 0 0
2.999899206055218 0 0
3.004186830266991 0 0
3.047271866767373 0 0
3.228666878414103 0.001162726729315993 0
3.218220752126359 0.000463903499477188 0
3.219357789915199 0.0004736816505590054 0
3.219384009753107 -8.276553874343369e-05 0
3.221985017402848 -0.0003448244026630003 0
3.224067313654952 -0.0003721209370455295 0
3.221782014931044 -5.764386957767322e-05 0
3.220983392080901 -0.0003315511395521874 0
3.224694059710044 6.316217509950568e-05 0
3.222755858837392 0.0001639293445036563 0
3.223887201033866 7.214411315020861e-06 0
3.220449557083095 -0.000315371609444536 0
3.21822319729137 -0.001374181901701587 0
3.229393621673935 -0.001037232969952357 0
3.042877410951474 0 0
3.004731555483671 0 0
3.000033636678644 0 0
2.999925854985912 0 0
2.999999863979097 0 0
3.000002561381684 0 0
2.999999780553066 0 0
2.99999993520638 0 0
3.00000002028962 0 0
2.99999999674713 0 0
3.000000001196221 0 0
2.999999999369278 0 0
3.000000000078253 0 0
3.000000000069494 0 0
2.99999999997087 0 0
3.000000000004557 0 0
2.99999999999633 0 0
3.000000000003174 0 0
2.99999999999929 0 0
2.999999999999093 0 0
3.000000000001108 0 0
2.999999999999309 0 0
3.000000000000289 0 0
2.999999999999918 0 0
3.000000000000018 0 0
2.999999999999998 0 0
2.999999999999979 0 0
3.000000000000043 0 0
3.000000000000014 0 0
2.999999999999824 0 0
3.000000000000226 0 0
3.000000000000487 0 0
2.999999999998404 0 0
2.999999999999456 0 0
3.00000000000558 0 0
3.000000000001137 0 0
2.999999999981926 0 0
2.999999999990755 0 0
3.000000000039943 0 0
3.000000000055466 0 0
2.999999999996673 0 0
2.999999999930809 0 0
2.999999999925616 0 0
2.999999999926991 0 0
2.999999999934728 0 0
2.999999999979604 0 0
3.000000000009627 0 0
2.999999999996649 0 0
2.999999999980312 0 0
3.000000000011354 0 0
3.000000000015044 0 0
2.999999999984721 0 0
3.000000000008297 0 0
2.999999999996891 0 0
3.000000000000234 0 0
3.000000000000762 0 0
2.999999999999756 0 0
3.000000000000226 0 0
3.000000000003348 0 0
3.000000000001183 0 0
2.999999999991676 0 0
3.000000000006216 0 0
3.000000000036307 0 0
3.000000000056105 0 0
3.000000000051753 0 0
2.999999999901739 0 0
2.999999999358046 0 0
3.000000001108756 0 0
3.000000001140285 0 0
2.999999996303117 0 0
2.999999990102071 0 0
2.999999989239085 0 0
2.999999987901364 0 0
2.999999974869317 0 0
2.999999973494953 0 0
2.999999981642423 0 0
2.999999999962347 -4.335089058036108e-12 0
1.657088514209466 0.4100505541111883 0
3.000000000143169 1.107488134886607e-10 0
2.999999998783468 3.342786902074049e-09 0
3.000000000168025 1.043749699302555e-11 0
2.999999999997454 2.269140629066707e-14 0
2.999999999998856 -2.926114768832652e-13 0
3.000000000000076 -7.630602099826156e-14 0
2.999999999999889 1.902717327488539e-14 0
2.99999999999963 8.135186189200265e-14 0
3.000000000007669 2.298432917886672e-12 0
3.00000000037508 -8.022767647684907e-11 0
2.99986219026406 0.0001766459734229183 0
2.999999997023112 2.868132917310202e-12 0
3.00000000001238 -2.648830855351005e-12 0
3.000000000003438 -8.975405514663115e-14 0
3.000000000000073 2.271942841830463e-13 0
2.999999999988735 -2.141956609438003e-12 0
3.000000021727742 -1.289693095951098e-09 0
2.999998934235659 -4.028198479156621e-08 0
1.803079722463528 0.4709327172849725 0
2.345140290067818 0.4058178006808167 0
3.05913627191929 -0.0001525721923146125 0
2.537911607743854 0.2602531116813736 0
2.7665771487644 0.1883162806851097 0
2.888460226013855 0.07630236460613855 0
2.947520912290471 0.0483643628749641 0
3.000000735714322 8.926106521383603e-08 0
2.985155414053382 0.01225939633312025 0
2.993427720811516 0.007094020588926614 0
2.980615796448956 0.02327027681571867 0
2.997920271064303 0.002973583060802002 0
2.99443372435616 0.00867565447846055 0
2.999603557126222 0.0008321539571629888 0
2.998908715832536 0.002278592757909219 0
3.00000056624 0.000102964719715881 0
2.999999999995473 4.99489680863409e-12 0
2.999999999899833 3.390148261829839e-11 0
3.000007738648209 7.445971092216485e-05 0
2.999912720463419 0.0002798474720575876 0
3.000003140002191 4.945595232111334e-07 0
3.000000004309051 -3.826726172124244e-10 0
3.00003211897174 -5.950064804477223e-05 0
3.000021810624642 -6.794004487111854e-05 0
2.999999999973691 3.90782769525545e-11 0
2.99980528648475 5.130734466752462e-06 0
2.999751826523331 0.0007689372358007227 0
2.999990671661088 -2.115766486201976e-05 0
3.000008936931172 -2.638471290675612e-05 0
3.000003085545546 -1.057937057044237e-05 0
3.06963483903653 -0.0002547332908630744 0
2.999824346850404 0.0008661363694616809 0
2.999983052361893 -1.914837224223215e-05 0
2.97581807265432 0.01494014212250643 0
2.998666569135681 0.001339353344733946 0
2.999958872238539 0.0005213648951873139 0
2.999982395473296 -2.973216895550998e-05 0
2.999999494246652 8.029938036587861e-07 0
2.999999140794761 1.381583942097427e-06 0
2.999996975392627 -2.927660537118861e-05 0
2.999996005713891 -1.608282479450714e-05 0
2.999984092215762 -3.222014157024317e-05 0
2.999998356528396 -4.924608800880659e-06 0
2.999987836604127 -2.104795414229389e-05 0
3.00000030717908 1.779460135936981e-07 0
2.999994363922039 -4.521092491203438e-06 0
3.000001420727745 1.418591772125123e-06 0
3.000000097206166 1.965286453899605e-06 0
3.00000098741029 4.835740257284675e-07 0
3.000002028820343 1.433536718085912e-06 0
3.000000085780919 -1.508917311501553e-07 0
3.000000745795378 -1.032360498339424e-07 0
2.999999797130894 -1.165735373118827e-07 0
2.99999983435389 -2.398651154101321e-07 0
2.999999917274061 2.662249738063278e-08 0
2.999999882211975 2.896448070762912e-08 0
3.000000028152797 1.948649799400556e-08 0
2.999999994603732 3.524975955303549e-08 0
3.000000011140686 -9.878658074188192e-09 0
3.000000012267543 -7.765817110360101e-09 0
2.999999997554347 -9.757269008821874e-10 0
3.000000004246964 -3.43563261511838e-09 0
2.999999997810109 1.912360720006947e-09 0
2.999999996218927 2.106138537057962e-09 0
3.000000001289028 -6.87594682915195e-10 0
3.000000001189404 -5.819198969310037e-10 0
2.999999999681594 1.335324347920594e-10 0
2.999999999797949 1.077548338918113e-10 0
3.000000000018994 -6.306019116532089e-12 0
3.000000000004832 -1.301131433723317e-11 0
3.000000000016886 -6.445716826887165e-12 0
3.000000000011902 -2.181837921346169e-13 0
2.999999999991006 3.376862694259143e-12 0
2.999999999993746 8.206241965018796e-13 0
3.000000000003078 -1.167901101411195e-12 0
3.000000000002304 -3.604707543306711e-13 0
2.999999999999142 3.462948723744573e-13 0
2.999999999999243 1.225043928479891e-13 0
3.000000000000214 -9.877045847300497e-14 0
3.000000000000314 -3.08296949826752e-14 0
2.999999999999776 2.701702486375986e-14 0
2.999999999999885 -4.508451921529714e-14 0
3.00000000000063 3.722944888585309e-14 0
2.999999999999543 1.670514050218439e-13 0
2.99999999999898 -1.405754185479704e-13 0
3.000000000001783 -3.432438386549281e-13 0
3.000000000000228 2.08969135011394e-13 0
2.999999999996804 5.174627902897829e-13 0
3.000000000003162 -1.07365753321725e-13 0
3.000000000002181 -5.545907298806449e-13 0
2.99999999999211 -1.731724262226583e-13 0
3.000000000003093 2.368849955979981e-13 0
3.000000000007684 2.825345133134364e-13 0
2.999999999995203 6.173822144821944e-13 0
2.99999999999528 1.378484483039397e-13 0
2.99999999999202 -1.81588893814579e-12 0
3.000000000035174 -5.704520755870238e-13 0
2.999999999976264 2.493723825103685e-12 0
2.999999999923534 3.007491862575186e-13 0
3.000000000226276 -3.013505388340573e-12 0
2.999999999773586 6.18774865112887e-13 0
2.999999999767374 6.456071379851749e-12 0
3.000000001172571 -7.449039852345538e-12 0
2.999999998912211 -6.246403869235454e-12 0
2.999999997140968 4.360495672581802e-11 0
3.000000004581533 2.600984983082735e-11 0
3.000000011509503 -1.602087303872179e-10 0
2.999999999982944 -7.910623970701298e-10 0
2.999999956875544 1.408232984245573e-10 0
2.999999880544873 4.052717538907332e-09 0
3.079323507138842 9.839648437536719e-05 0
2.999999918754904 3.739598149074608e-09 0
2.998555952600574 0.001173880265468343 0
3.000234054576018 -3.590265817645269e-05 0
3.000396613060273 -0.0001467673063671158 0
3.000054272228936 -3.01261423013287e-05 0
2.999999999015267 -5.959444894071478e-12 0
2.999999999993896 3.145588336807725e-12 0
3.000000116121726 3.556635393267043e-08 0
2.999999999995818 -6.805895576407661e-13 0
3.000000000000228 3.645089776093123e-14 0
3.000009085722962 -5.452005320724451e-06 0
2.999993641164087 1.253601065997588e-06 0
2.999997569522 -2.19214359438752e-06 0
2.999999999991259 4.780582829557237e-12 0
3.000000033653726 2.537039773542133e-09 0
3.000000000487591 -5.471716867728033e-10 0
3.000001178298012 9.707376114567073e-07 0
2.999999739191929 7.831974983217493e-07 0
2.999999965102828 2.41001379033159e-07 0
3.000000382144044 2.218111058722624e-08 0
3.000001769259516 2.681925827809544e-06 0
2.999999871686245 -1.870395375750373e-09 0
3.00000047111266 -1.505130088943549e-08 0
3.000000008485757 -6.78565048937339e-09 0
2.99999999980184 1.131244759366014e-10 0
3.000000000000815 2.266173619075018e-13 0
2.999999999999369 3.351107025095106e-13 0
2.99999713974006 1.27552110378933e-06 0
2.999997537921834 1.412827810832368e-06 0
3.000000000002583 -1.351074261200931e-12 0
2.999999999767398 2.15245683092734e-12 0
2.99999995703191 3.759866625970856e-10 0
2.999376003633138 0.004692821476843488 0
2.999978298891763 -4.63731644874457e-05 0
2.999999871685764 -7.638052590687839e-09 0
3.000001769502945 -2.234371228221407e-08 0
3.000000038092701 -7.235715116224311e-08 0
3.000000002424202 -8.179772332305249e-09 0
3.000000033901626 -6.866610295690734e-08 0
3.0000000591961 -7.93055435794563e-09 0
3.000000007815797 -2.688734735625955e-08 0
3.00000004990974 -6.693368971953958e-08 0
2.999999991765614 4.400848060474009e-09 0
3.000000000917386 -1.700239063916295e-08 0
2.999999997489826 5.296205170537732e-09 0
2.999999989282824 8.698100259028765e-09 0
3.000000002195296 -1.335618044906233e-09 0
3.000000001294313 1.458440302442407e-09 0
0.6635271112009199 0.1928405361601299 0
3.001019360687475 -0.0002523279417550552 0
2.999999999361738 -1.721190705032204e-10 0
2.999991675596505 2.45154657452092e-06 0
2.999841301733277 1.200839546810659e-05 0
3.000000267786241 3.082882466817518e-08 0
2.9322176404703 0.03281139274356426 0
3.000000000942314 -1.710191526202284e-09 0
3.000000304443903 -9.465553986590992e-09 0
2.999999885090645 2.805306806478081e-09 0
3.000002660173284 -2.578484360949488e-08 0
2.999998269036825 3.338707812910249e-07 0
2.564958557641374 0.1409828232146647 0
3.000000001900429 -1.490503441057348e-08 0
3.0000079113893 -2.191361708807099e-07 0
2.99999999979478 2.880813305082569e-10 0
3.000000002178926 -1.656031888369136e-09 0
2.999975611765167 4.089653805376538e-06 0
2.999993384739356 2.305153334201512e-06 0
3.000000000013662 5.756471994103452e-12 0
3.000000000077079 1.157836873697823e-10 0
2.999999999998949 -1.176062031368807e-14 0
2.999999999999957 -1.989686928071047e-14 0
2.999999999999095 5.220067404137237e-13 0
3.000000000080909 -2.342514476405022e-11 0
3.000000000000235 3.038927405560758e-13 0
2.999999999999426 3.475210107225094e-13 0
3.000000000103911 -1.800317663783689e-11 0
3.000000000149032 -5.379187240446084e-11 0
3.000000000001333 -3.920030503647464e-14 0
3.000118722291863 -2.623983641492498e-05 0
2.999999919740851 1.202818154156258e-08 0
2.999999995156333 1.748165855045498e-09 0
2.999999999996777 5.396680346689791e-13 0
3.000000000000376 -4.192440466238823e-14 0
2.999999997155467 -5.487292858578492e-11 0
2.999999999993769 -2.035097719701008e-11 0
2.999999999997985 -6.470903030640609e-13 0
3.00000000000367 1.270907345908694e-12 0
3.000000000000021 -7.163023135089355e-15 0
3.000000000000156 -2.855568059387987e-13 0
2.999999999998255 3.695172584121749e-13 0
2.99999987019341 -3.868549396276681e-08 0
3.000000000002796 -1.157497457485032e-13 0
2.999999999999933 1.109197578006073e-13 0
3.000000000000093 5.006501901645282e-12 0
2.999999996630947 1.655175501873302e-09 0
3.000000000237558 1.034485335637707e-12 0
3.000000000035381 -1.915952203323161e-13 0
3.000000046215142 -3.934570102300061e-07 0
3.000000011651346 -5.412567068812327e-09 0
3.000000037875487 -5.316792243401873e-08 0
2.999921986783409 -1.156949276500192e-05 0
3.010850850545354 -0.0005703854158778412 0
2.999999997034099 9.4414229063252e-11 0
3.000000424037419 -5.523695056225114e-08 0
3.000000000390215 -1.225735819139506e-09 0
2.965452153472029 0.04886784992733985 0
3.000000097092031 -5.706176818620287e-08 0
3.000000000089214 3.29453692192523e-10 0
2.999999995960754 6.726124401657999e-09 0
3.000000003107881 -1.640627028933684e-09 0
2.999979225448416 3.702707586174139e-07 0
2.999999886383573 5.546825210107687e-09 0
2.99999996578548 1.128017040577659e-09 0
2.999999996578277 5.964793284563899e-09 0
2.999999999966731 2.155750797483521e-10 0
2.999999958624309 2.550171806949508e-07 0
2.999944810196568 1.707591173554038e-06 0
3.00000000028738 -1.725146248612202e-10 0
2.999995495479082 -9.064142021883487e-07 0
2.999955155258879 1.06808434957103e-05 0
2.999999910547661 4.809465982968584e-07 0
3.000001865598569 -5.603407583142571e-07 0
2.999998640537252 -1.184720897242317e-07 0
2.999949065460973 -6.410804224479128e-07 0
3.070203695107966 0.00082778554113624 0
3.055516246861131 -0.0008814846802950903 0
2.999998423742605 1.277502868930385e-06 0
2.999999999860191 3.44605980412942e-11 0
3.000092826923259 0.002453502501511102 0
2.998650305276534 0.01317873239947013 0
3.000597953597917 0.005728085644642114 0
2.999975207563332 9.840235856690327e-07 0
3.000000599087753 -1.218165968853275e-06 0
2.345068575049696 0.252095474417256 0
2.999995739415744 1.065510992541656e-06 0
3.000000065083911 -3.664756325428887e-08 0
2.999999965338326 1.008279275432391e-08 0
2.999999974235448 6.17691930519052e-09 0
3.000001719695673 -4.6708191894349e-07 0
2.999999999969998 8.808332015130454e-11 0
2.997447753941433 0.02265678140429533 0
3.001007336810694 0.009234468562512583 0
2.986551190800195 0.04527661027683758 0
2.999945360214502 8.017395918187559e-07 0
2.999936263895203 8.005234750657594e-07 0
3.000000000030911 -4.118767296083076e-11 0
3.000000000014994 -1.759276177203253e-10 0
2.999999891557041 3.552237389580675e-09 0
3.000000003958011 1.444032884811027e-10 0
3.000000011017408 -4.450834170480556e-10 0
3.000000002838968 -2.465226641038166e-10 0
2.999999997265243 7.784307284308435e-11 0
2.999999999398431 5.705797682792612e-11 0
3.000000001116472 -8.406089216388846e-12 0
2.999999999666949 -2.08124287639565e-11 0
2.999999999820556 5.800544381568819e-12 0
3.00000000019021 7.69713499165907e-13 0
2.999999999899885 -7.3157950565691e-12 0
2.999999999999006 1.201121522043908e-11 0
3.000000000049801 -1.167721938924698e-12 0
2.999999999980753 -4.687275753977818e-12 0
2.999999999987411 2.104391444049561e-12 0
3.000000000009089 -1.418866789476483e-12 0
3.000000000006862 1.233480169061064e-13 0
2.999999999991746 1.417336239382643e-12 0
2.999999999997566 -4.415216965030283e-13 0
3.000000000006865 -2.052387799487291e-13 0
2.999999999998041 -2.271214066447048e-13 0
2.999999999996769 -4.530124872994739e-14 0
3.000000000003049 4.33862694975858e-13 0
3.000000000000524 -1.931939436360289e-13 0
2.999999999998018 -1.56040269644536e-13 0
3.000000000000367 2.957225497006168e-13 0
3.00000000000076 -1.207841702868337e-13 0
2.999999999999706 -2.152809753578926e-13 0
2.999999999999867 1.992291200346449e-13 0
3.000000000000068 9.379473605377659e-14 0
2.999999999999975 -1.492221895234257e-13 0
3.000000000000049 -2.263646433535591e-14 0
2.999999999999957 1.039493875733743e-13 0
2.999999999999912 2.091941530389599e-14 0
3.000000000000207 -1.582653125347963e-13 0
2.999999999999958 -3.931123887842768e-14 0
3.000000000000035 2.592146881158707e-13 0
3.000000000000691 -6.675255398080505e-14 0
2.999999999997804 1.206903356177839e-13 0
2.999999999998554 3.99946442178431e-13 0
3.000000000005593 -1.846751352851266e-12 0
2.999999999998546 -3.804895405686957e-13 0
3.000000000004238 3.301764280842317e-12 0
3.000000000012323 -1.325793160272245e-12 0
2.999999999947973 3.151323074321603e-12 0
2.999999999980801 4.038763918901593e-12 0
3.000000000100359 -2.065748189870787e-11 0
2.999999999987748 -3.545153987205986e-12 0
3.000000000012949 2.976860530706258e-11 0
3.000000000099501 -2.940648140768188e-12 0
2.99999999957755 -1.199688362250455e-11 0
2.999999999877952 1.10806129900926e-11 0
3.000000000689314 -5.223262301808462e-11 0
2.999999999781213 -3.064449633643462e-11 0
3.000000000690841 2.664720160132282e-10 0
3.000000000643792 8.89172048092191e-11 0
2.999999996862711 -6.174820034528233e-10 0
3.000000000455141 1.028806914361606e-10 0
2.999999998145318 -7.717460242451985e-10 0
2.999999997941971 -7.67903667758781e-10 0
3.000000008075644 4.298110266015518e-09 0
2.999999997323562 -5.48326625731967e-10 0
3.000000015789618 8.331960768568866e-09 0
3.000000002038566 3.482199370060148e-09 0
3.000000007769337 -4.398057194052085e-09 0
3.000000009412869 8.620711635963299e-09 0
2.99999998545079 -3.768513451468713e-08 0
3.000000011057194 6.633059835000327e-09 0
2.999999967851498 -7.431480479976599e-08 0
3.000000008534555 -4.245819209600462e-09 0
2.999999969084131 -8.969918546755516e-08 0
3.000000006253442 -1.517021406983269e-08 0
2.999978176181746 -2.555511175185524e-07 0
2.999945531265411 -4.013249289549178e-06 0
2.999999985618836 9.695307677388693e-09 0
3.000000002836425 5.978965563668643e-10 0
2.999959576033929 7.818281500752057e-06 0
2.999960395765612 7.250542851250142e-06 0
3.000126477164074 -2.167913666059297e-06 0
2.999999982763693 -7.981819039391032e-08 0
3.000000006159626 -1.530755802935427e-08 0
2.999999949124077 2.862500358778884e-07 0
2.999999900768885 1.117019859131374e-08 0
3.000181201607564 4.063661356790424e-06 0
2.999932535993876 1.294526313140048e-06 0
3.0011138940256 3.162743145807736e-05 0
3.000106115790036 -8.93529780986018e-06 0
2.999941734141241 -3.47731953640298e-07 0
2.999934635540425 -1.733593361051326e-06 0
2.999976549438947 1.248664534154593e-06 0
2.999931640476729 5.19391502695779e-06 0
2.999997876938332 5.627164727060976e-07 0
2.999971788428451 2.83020187764077e-07 0
3.000001937706543 2.597659913010471e-09 0
2.999847562203809 -4.50074687959977e-06 0
3.000001886542513 4.027160021716497e-09 0
3.000000558444093 1.43869661689672e-08 0
2.999999402894537 7.980599522965954e-07 0
2.999997240485309 1.625490468788181e-06 0
3.000000002445103 6.945147525892044e-10 0
2.999999999946457 4.331506682483538e-09 0
2.999999910987055 1.606878232057078e-08 0
2.999999999999951 1.988089527493201e-12 0
1.610159821046074 0.004872376839310218 0
2.999999912920085 -1.661094985730119e-08 0
2.999999859271794 -3.442569727721061e-09 0
2.999999951950604 -2.235359851189453e-10 0