<?xml version="1.0"?>
<VTKFile type="UnstructuredGrid">
  <UnstructuredGrid>
  <Piece NumberOfPoints="1224"  NumberOfCells="2290">
    <Points>
      <DataArray type="Float64" NumberOfComponents="3" format="ascii">
0 0 0
0.6 0 0
0.6 0.2 0
3 0.2 0
3 1 0
0 1 0
0.05454545454535233 0 0
0.1090909090906768 0 0
0.1636363636359771 0 0
0.2181818181812728 0 0
0.2727272727265793 0 0
0.3272727272720317 0 0
0.3818181818176247 0 0
0.4363636363632168 0 0
0.4909090909088285 0 0
0.5454545454544089 0 0
0.6 0.03999999999991203 0
0.6 0.07999999999979179 0
0.6 0.1199999999997886 0
0.6 0.1599999999998948 0
0.6510638297871261 0.2 0
0.7021276595742618 0.2 0
0.7531914893613819 0.2 0
0.8042553191485237 0.2 0
0.8553191489356438 0.2 0
0.9063829787228289 0.2 0
0.957446808509926 0.2 0
1.008510638297009 0.2 0
1.059574468084092 0.2 0
1.110638297871174 0.2 0
1.161702127658257 0.2 0
1.21276595744534 0.2 0
1.263829787232422 0.2 0
1.314893617019505 0.2 0
1.365957446806588 0.2 0
1.417021276593671 0.2 0
1.468085106380754 0.2 0
1.519148936167923 0.2 0
1.570212765955006 0.2 0
1.621276595742088 0.2 0
1.672340425529171 0.2 0
1.723404255316254 0.2 0
1.774468085103337 0.2 0
1.825531914890624 0.2 0
1.876595744677951 0.2 0
1.927659574465349 0.2 0
1.978723404252714 0.2 0
2.029787234040074 0.2 0
2.080851063827477 0.2 0
2.131914893614798 0.2 0
2.182978723402204 0.2 0
2.234042553189523 0.2 0
2.285106382976928 0.2 0
2.336170212764247 0.2 0
2.387234042551653 0.2 0
2.438297872338975 0.2 0
2.489361702126377 0.2 0
2.540425531913739 0.2 0
2.591489361701102 0.2 0
2.642553191488421 0.2 0
2.693617021275827 0.2 0
2.744680851063146 0.2 0
2.795744680850551 0.2 0
2.84680851063787 0.2 0
2.897872340425276 0.2 0
2.948936170212618 0.2 0
3 0.2533333333332341 0
3 0.3066666666664725 0
3 0.3599999999996274 0
3 0.413333333332804 0
3 0.4666666666659806 0
3 0.5199999999991571 0
3 0.5733333333323336 0
3 0.6266666666656895 0
3 0.6799999999991551 0
3 0.7333333333326146 0
3 0.7866666666660802 0
3 0.8399999999995775 0
3 0.8933333333330373 0
3 0.9466666666664969 0
2.949152542373491 1 0
2.898305084746983 1 0
2.847457627120474 1 0
2.796610169493702 1 0
2.745762711866469 1 0
2.694915254239208 1 0
2.644067796611963 1 0
2.593220338985156 1 0
2.542372881358647 1 0
2.491525423732018 1 0
2.44067796610481 1 0
2.389830508477549 1 0
2.338983050850287 1 0
2.288135593223026 1 0
2.237288135595765 1 0
2.186440677968504 1 0
2.135593220341243 1 0
2.084745762713982 1 0
2.033898305086721 1 0
1.983050847459614 1 0
1.932203389832729 1 0
1.881355932205844 1 0
1.830508474578958 1 0
1.779661016952073 1 0
1.728813559325189 1 0
1.677966101698303 1 0
1.627118644071418 1 0
1.576271186444533 1 0
1.525423728817648 1 0
1.474576271190575 1 0
1.423728813563314 1 0
1.372881355936053 1 0
1.322033898308791 1 0
1.27118644068153 1 0
1.220338983054269 1 0
1.169491525427008 1 0
1.118644067799747 1 0
1.067796610172485 1 0
1.016949152545224 1 0
0.9661016949179628 1 0
0.9152542372907018 1 0
0.8644067796634407 1 0
0.8135593220361792 1 0
0.7627118644089181 1 0
0.7118644067816566 1 0
0.661016949154396 1 0
0.6101694915271345 1 0
0.5593220338998739 1 0
0.5084745762726124 1 0
0.4576271186453518 1 0
0.4067796610180903 1 0
0.3559322033908292 1 0
0.3050847457635677 1 0
0.2542372881363066 1 0
0.2033898305090456 1 0
0.1525423728817841 1 0
0.101694915254523 1 0
0.05084745762726151 1 0
0 0.9473684210524125 0
0 0.8947368421048248 0
0 0.8421052631576025 0
0 0.7894736842105994 0
0 0.7368421052635962 0
0 0.6842105263165927 0
0 0.6315789473695894 0
0 0.5789473684225861 0
0 0.5263157894755828 0
0 0.4736842105282874 0
0 0.4210526315806998 0
0 0.3684210526331123 0
0 0.3157894736855248 0
0 0.2631578947379374 0
0 0.21052631579035 0
0 0.1578947368427625 0
0 0.1052631578951749 0
0 0.05263157894758741 0
0.4374856279758046 0.955462795473483 0
0.625531914893563 0.2394317949808221 0
0.7891616249544176 0.9557759867023439 0
2.570562443351098 0.9559758769411787 0
2.364406779663917 0.9559648099769389 0
2.161016949154874 0.9559648099769389 0
1.957627118646171 0.9559648099772646 0
1.756856606547665 0.9560078743553572 0
1.553415402058453 0.9561420672712786 0
1.347457627122422 0.95627738856474 0
1.144067796613377 0.9563034567995272 0
0.04146670856173688 0.5498854761242812 0
0.9828861012149002 0.2442383967812095 0
2.465390809289578 0.2421522008426663 0
2.259572257543314 0.243586373321511 0
2.055319178697841 0.24363095694403 0
1.851066099915384 0.2436741865527954 0
1.646810778591931 0.2437170671454607 0
1.442550972205278 0.2437587738062726 0
1.238275543433999 0.2442249255777628 0
0.5808319854219957 0.2417757800606361 0
0.6039807146029165 0.2785115072887754 0
2.951522810440164 0.5995349944823752 0
0.5591131416216563 0.2791940688436214 0
0.5817690965011905 0.3180386921514113 0
0.5363223429032008 0.3181181454258206 0
0.5590799034518541 0.3577335228902347 0
2.671507320584846 0.2416532643303031 0
0.5129751095268966 0.3576683284772433 0
0.5360042291720796 0.3976917483469583 0
0.5824744072527975 0.3977458985417416 0
0.5593202208963615 0.4382323507424581 0
0.6062221806132498 0.4382172989803606 0
0.5831398502988122 0.4790536480492864 0
0.630245509211025 0.4792447281197085 0
0.5373735766893435 0.4817209888486334 0
0.2780994584865757 0.9660670791366374 0
0.9407829849899363 0.9559852449915113 0
0.6069171020766708 0.5203953730037822 0
0.6544691944766102 0.5205851219036783 0
2.724115018794794 0.9563165682871465 0
0.04341732373162228 0.2894490564426765 0
0.6304562046384772 0.5622881188475496 0
0.6786259291441818 0.5621981517123112 0
0.03938236249337418 0.7091098825652095 0
0.2999999999993055 0.04723774929726795 0
0.7024556039582556 0.5200372393771872 0
0.726826368578132 0.562505099575485 0
0.6545296629344706 0.6041261864689124 0
0.6061411599039735 0.6041581669226386 0
2.954333097254252 0.4393531299125908 0
0.7512905139641642 0.5199435586712576 0
0.7757938242112172 0.5624873891767795 0
0.4902278874550028 0.3174350849704655 0
0.4661669324669476 0.3576870257641042 0
0.8003371868304782 0.5195844107098163 0
0.8251782158071723 0.5621174250913318 0
0.6300572939290072 0.6460588488486728 0
0.581677101888915 0.6462390077748084 0
0.7994632498085218 0.6067218912904607 0
0.850068894442807 0.6047738158182728 0
0.8747482025846163 0.5617915498272615 0
0.8998102571129438 0.6045430073239006 0
0.924588798996443 0.5614360364847856 0
0.9497125983499418 0.6046345614192383 0
0.9744389394813738 0.5613114208485291 0
0.9997656958801404 0.604758732930365 0
1.024028015453996 0.5597386087889248 0
1.050046148741532 0.6042836632406788 0
1.075213347289947 0.5607219500906248 0
1.100604808237692 0.6043040651294929 0
1.125727120818654 0.5598592244124957 0
1.151165990249003 0.6040638744783449 0
1.176319565514503 0.5595216793632644 0
1.201793840633129 0.6038781229769293 0
1.226960854257978 0.5600604284234054 0
1.252470704079807 0.6038664424080111 0
1.277198987313166 0.55874807111347 0
1.303148970446812 0.6035341865995129 0
1.328130525802366 0.5586520846649797 0
1.353966012915828 0.6034054551655909 0
1.379205474149696 0.558835304845746 0
1.404820923589671 0.6032503772964327 0
1.430092956912838 0.5587079795953892 0
1.455686300628245 0.6030926920218221 0
1.480963489515269 0.5580480170404921 0
1.506562983627252 0.6028436706904448 0
1.531847734917255 0.5577680566445021 0
1.557453558526421 0.6026435181305781 0
1.582745756648754 0.5575726351194972 0
1.608358176126191 0.6024617369905624 0
1.633656322435163 0.5573842056888257 0
1.659277805706528 0.6022873884346892 0
1.684577462424181 0.5572075399874397 0
1.710203504633815 0.6021111834258887 0
1.735506494091908 0.5570246051384745 0
1.761134606493805 0.6019307913070558 0
1.786441498808711 0.5568475628142857 0
1.812072359676459 0.6017522495250318 0
1.837381834584306 0.5566653603575672 0
1.863017119880456 0.601574020443024 0
1.888326681794851 0.5564884669211013 0
1.913963858781491 0.601395113412113 0
1.939274704592935 0.5563067813822595 0
1.964908406083961 0.6012129143420911 0
1.990224566339525 0.5561292537946573 0
2.015859329864652 0.601032757987411 0
2.041177190815608 0.5559477304122714 0
2.066818109147928 0.600855564813206 0
2.09213259478423 0.5557710179709322 0
2.117774443326183 0.6006760179252703 0
2.143088896138059 0.5555900146741853 0
2.168729305797513 0.6004921726308964 0
2.194045774061603 0.5554125217101814 0
2.219686577151481 0.6003111949874665 0
2.245003702950199 0.5552312296013228 0
2.270641766736839 0.6001298880828497 0
2.295962173634055 0.5550546947866846 0
2.321601310982481 0.599950595338254 0
2.346923922781879 0.5548708301001631 0
2.372568004594504 0.5997713467128002 0
2.397895756972162 0.5547000681173012 0
2.423546697517365 0.5996004731097838 0
2.448884659670238 0.5545095609010697 0
2.474538141419978 0.5994220729206983 0
2.499902931415869 0.5543494429014709 0
2.525546234724433 0.5993228147833797 0
2.550973655834774 0.5541346321759457 0
2.576685338327378 0.5992395038842441 0
2.602182482443039 0.5540180644105763 0
2.958944511946492 0.7598964409357507 0
2.628014314012249 0.5990918128353608 0
0.4429170888396284 0.3159793431387367 0
0.4184631156771032 0.357715436029677 0
0.3946070818022522 0.3157219358498637 0
0.3697276561976696 0.3576135465858128 0
2.449044355814981 0.643990885448769 0
2.24531935830005 0.6444881680698032 0
1.024857369602972 0.6487487015028032 0
2.041498164113345 0.6452136474256573 0
1.837701628146142 0.6459229900926835 0
0.3455853078837237 0.3150377509381005 0
0.3204780172155196 0.3574251905568473 0
0.3449438693484468 0.4002519798591844 0
1.633970683060678 0.6466170330762969 0
1.227333380683899 0.6479317947648683 0
1.430444030483603 0.6473399689389928 0
0.875196942148915 0.6483605753517908 0
0.6057010339261732 0.6883083412871458 0
0.5571396249147901 0.6885103796531055 0
2.653543252321963 0.5527758280498023 0
1.099471497978971 0.5148848291986879 0
2.602427017093663 0.6438096025956825 0
2.653851606946175 0.6437140715169269 0
1.353138019780104 0.5138574114565649 0
1.556762689169365 0.5115839513085039 0
1.760509743411542 0.5109012431757174 0
1.964341412665395 0.510388685431229 0
0.2953909602266698 0.4001745965167012 0
[...]
    <PointData>
      <DataArray type="Float64" NumberOfComponents="3" Name="Velocity" format="ascii">
3.000000122399396 0 0
0 0 0
0 0 0
3.168444011809506 0 0
3.171516825632528 0 0
3.000000000000032 0 0
2.99999987544512 0 0
3.000000564052792 0 0
2.999997154442744 0 0
3.000012288835593 0 0
2.999956866581305 0 0
3.000093831954284 0 0
3.000245335002975 0 0
2.994536720976461 0 0
3.060070375257445 0 0
2.683984282494952 0 0
0 0.004955383635312192 0
0 0.004160179169456503 0
0 -0.003145190491058421 0
0 0.06107749355073331 0
2.308634198197688 0 0
2.918587141703399 0 0
3.006489939574519 0 0
3.001174597473257 0 0
2.999419428919351 0 0
3.000151261872241 0 0
2.999978959367698 0 0
3.000000275621483 0 0
3.0000005706812 0 0
2.999999790867725 0 0
3.00000006659086 0 0
2.999999979791448 0 0
3.000000004780518 0 0
2.999999999701838 0 0
2.999999999614241 0 0
3.000000000204524 0 0
2.999999999934993 0 0
3.000000000015697 0 0
2.999999999997026 0 0
3.000000000000398 0 0
2.999999999999988 0 0
2.999999999999984 0 0
3.000000000000007 0 0
2.999999999999998 0 0
3.000000000000001 0 0
3 0 0
3.000000000000002 0 0
2.999999999999965 0 0
3.000000000000189 0 0
2.99999999999975 0 0
2.999999999997046 0 0
3.000000000022321 0 0
2.999999999941245 0 0
2.999999999840937 0 0
3.000000002093401 0 0
2.999999990798453 0 0
3.000000032410325 0 0
2.999999880711296 0 0
3.00000045061974 0 0
2.999998428515152 0 0
3.000004244501422 0 0
3.000000390168248 0 0
2.999924810333222 0 0
3.000444095389324 0 0
2.997672655825073 0 0
3.008757068517493 0 0
3.171613747932858 0.0005992052578211081 0
3.162048692830141 -0.0003679875919894633 0
3.16336027384247 7.963823668198816e-05 0
3.163251102327729 -6.150137978503856e-05 0
3.164981700344065 -0.0002267497114293166 0
3.166447962459868 -6.600958334680017e-05 0
3.164992953358447 0.0004426385842861074 0
3.164333778044695 -0.0005238690826852388 0
3.167760573271717 7.511223615528813e-06 0
3.166021039539705 9.515307268438489e-05 0
3.166687080158669 3.540720219522428e-05 0
3.16320157603852 0.0004611410722314312 0
3.162797768762473 -0.0005489559014120731 0
3.175327314597728 -0.0001759796577389877 0
3.006250198941168 0 0
2.997641062920267 0 0
3.00032895973057 0 0
2.99996042665453 0 0
3.000000353403378 0 0
3.000002792809979 0 0
2.999998689130011 0 0
3.00000039556921 0 0
2.999999900660429 0 0
3.00000002417217 0 0
2.99999999416849 0 0
3.000000000692863 0 0
3.000000000122892 0 0
2.999999999928319 0 0
3.000000000014312 0 0
2.999999999999389 0 0
2.999999999999602 0 0
3.000000000000099 0 0
3 0 0
2.999999999999993 0 0
3.000000000000001 0 0
3.000000000000001 0 0
3 0 0
3 0 0
3 0 0
3 0 0
3 0 0
3 0 0
3 0 0
2.999999999999998 0 0
3.000000000000004 0 0
3.000000000000004 0 0
2.999999999999972 0 0
3.000000000000014 0 0
3.000000000000111 0 0
2.999999999999845 0 0
2.999999999999648 0 0
3.000000000000655 0 0
3.000000000001166 0 0
2.999999999998255 0 0
2.999999999995683 0 0
3.000000000001301 0 0
3.000000000010614 0 0
3.000000000011606 0 0
3.000000000001803 0 0
2.999999999989396 0 0
2.999999999977484 0 0
2.999999999978699 0 0
2.999999999999704 0 0
3.00000000000602 0 0
2.999999999999864 0 0
3.00000000000017 0 0
3.000000000000377 0 0
2.999999999999768 0 0
3.000000000000103 0 0
2.999999999999963 0 0
3.000000000000006 0 0
2.999999999999992 0 0
2.999999999999812 0 0
3.000000000000628 0 0
2.999999999999718 0 0
2.999999999995412 0 0
3.000000000013987 0 0
2.999999999989541 0 0
3.000000000100094 0 0
2.999999999099853 0 0
2.999999999990558 0 0
3.000000002024943 0 0
2.999999999690275 0 0
2.999999994342027 0 0
2.999999972082182 0 0
2.999999966615505 0 0
2.999999982723663 0 0
2.999999998387632 0 0
3.000000036723675 0 0
3.000000072694218 0 0
2.999999999995921 -1.427651396666611e-11 0
2.325869969306758 0.1941029070434411 0
2.999999999976022 -2.055538877895294e-11 0
2.999999945633452 -8.659031921503526e-09 0
2.999999999274093 -1.003893261274938e-11 0
3.000000000001447 7.080331232175427e-14 0
3 -2.332055213719764e-16 0
3 1.562392596368316e-16 0
2.999999999999999 3.430009749384588e-16 0
3.000000000000011 -1.866408491043662e-14 0
3.000000000000626 -9.285093632164584e-14 0
3.000000001008317 -2.226316930686382e-10 0
2.999982443328024 1.449201267482649e-06 0
3.000000002044243 6.919133459085216e-10 0
2.999999999976659 7.527526143165443e-13 0
2.999999999999999 -3.103440401976055e-15 0
3 -3.962301900293989e-17 0
2.999999999999662 4.609973414206175e-15 0
3.00000000008357 -1.503992376068446e-12 0
3.000000041578298 -1.427589974411987e-09 0
2.52048193731816 0.1643067797467203 0
2.890244140898738 0.08142205746446456 0
3.013738948016074 -3.641898305036509e-05 0
2.968189834423892 0.02658422283312956 0
3.004177263414344 0.001995007373629033 0
3.004124280134745 -0.002098459477135961 0
3.000814343379731 -0.001383834820757987 0
2.999997768602218 2.028752326527084e-07 0
2.999655784163265 6.717770083756277e-05 0
2.999779449482297 0.0002287174418916551 0
2.999671232162139 0.0001834300107537464 0
3.000015770694347 3.293320916590009e-05 0
2.99996792774729 0.0001685367678712378 0
3.000017050595793 -3.881776148740654e-05 0
3.00002148155522 -5.335463785901608e-05 0
3.000004105269526 -1.495167121051318e-05 0
3.000000000000541 -3.820417389322681e-13 0
3.000000000006717 1.491577274912091e-12 0
2.999995112376486 2.76713284740503e-06 0
2.999994150231758 4.911623764835038e-06 0
3.000009557279093 4.379905007968324e-07 0
3.000000023162678 -2.686240946419619e-09 0
3.000000697352057 3.366709394127239e-06 0
3.000001642853848 1.276443966363643e-06 0
2.999999999981926 4.842926599250157e-12 0
2.99989448947385 6.064811512820009e-07 0
2.999995324895856 8.635087178437576e-06 0
3.00000150765762 -1.293166461558115e-06 0
2.999999822025569 -1.452416758359936e-06 0
2.999999974809497 -1.47011662520793e-06 0
3.020296448614883 -3.919170846995204e-05 0
2.999999909304841 7.327124719019581e-06 0
3.000000172842822 -1.838653774914818e-06 0
2.999987333376086 -0.0002655818903892975 0
2.999844686123778 0.0001244918757876279 0
3.000002937915198 1.060534022588923e-06 0
2.999999215007404 -3.538598942369323e-07 0
2.999999980702961 3.880541831683424e-07 0
2.999999971501524 3.48181150105783e-07 0
2.999999958043932 4.596410886966809e-07 0
3.000000191407192 9.986950611342125e-08 0
2.99999962436196 4.642494851892911e-07 0
3.000000104001987 -1.139125947800303e-07 0
3.000000174507413 1.503970970781657e-07 0
2.999999954322065 -4.4060723129526e-08 0
3.000000162052807 -1.335934652041827e-07 0
2.999999955361595 3.848119973371043e-08 0
2.999999957288025 -1.994289619578182e-08 0
3.000000015381014 4.040880634220395e-09 0
2.999999951419694 3.417089366332211e-08 0
3.000000011254386 -9.362710781821652e-09 0
3.000000026523424 -7.351302443241475e-09 0
2.9999999926087 2.418010893842061e-09 0
2.999999999218677 -2.033619295008769e-09 0
3.00000000093823 3.479195307367761e-10 0
2.999999996021335 1.742716045545816e-09 0
3.000000000695657 -4.329794516317138e-10 0
3.000000002193684 -6.345496900754472e-10 0
2.999999999499423 1.756541324958153e-10 0
2.999999999170702 1.883540399153881e-10 0
3.000000000207621 -5.297213337324938e-11 0
3.000000000252492 -4.97112682011912e-11 0
2.999999999934247 1.337451748220772e-11 0
2.99999999993039 1.273099640656947e-11 0
3.000000000017962 -3.130910567138016e-12 0
3.000000000018587 -3.330204304885223e-12 0
2.999999999995264 7.838206536206628e-13 0
2.99999999999521 8.550838868699923e-13 0
3.000000000001276 -2.184892319474933e-13 0
3.000000000001172 -2.052191350675888e-13 0
2.999999999999647 6.292215946713205e-14 0
2.999999999999735 4.415940929606742e-14 0
3.000000000000096 -1.707725150934917e-14 0
3.00000000000005 -7.835759300466013e-15 0
2.999999999999977 4.244119270130971e-15 0
2.999999999999991 9.815252928039259e-16 0
3.000000000000005 -8.100189988380132e-16 0
3 -7.653839608150406e-17 0
2.999999999999999 1.907773036507172e-16 0
3 -3.760256203380391e-17 0
3.000000000000002 -1.602163764868134e-16 0
3 2.338072239214286e-17 0
2.999999999999999 1.72456055955271e-16 0
3.000000000000003 -3.612016644000202e-17 0
2.999999999999999 -5.962869648527175e-16 0
2.999999999999996 1.004662235011113e-16 0
3.000000000000015 1.856771799001855e-15 0
2.999999999999986 2.272297572780341e-17 0
2.999999999999991 -2.331061451986217e-15 0
3.000000000000097 -2.565920203336164e-16 0
2.99999999999973 -5.077578206982756e-15 0
3.000000000000056 5.424995749161771e-15 0
3.000000000001576 4.79676622812739e-14 0
2.99999999999662 -4.784432954890567e-14 0
2.9999999999984 -2.040638716832791e-13 0
3.000000000019206 3.534713963700821e-13 0
2.999999999969693 6.021870015616353e-13 0
2.999999999966146 -2.194004962641538e-12 0
3.000000000215678 -1.05471186428879e-12 0
2.99999999978088 1.095027328801795e-11 0
2.999999999364192 -9.011932805827797e-13 0
3.000000001850442 -4.53440474847498e-11 0
3.000000000175379 1.324501116402042e-11 0
2.999999992587274 2.072456303525466e-10 0
3.000000004731017 -3.06038843403622e-11 0
3.000000027470577 -1.249408958165722e-09 0
2.999999972771227 1.234805030901736e-10 0
2.999999893870366 5.768932806823823e-09 0
3.000000144613324 -3.94843764173269e-10 0
3.000000378271635 -1.937123598983171e-08 0
3.027706403490718 1.603437533964852e-05 0
2.999999412044799 1.685087876519669e-09 0
2.999585843430871 0.0001774096542615365 0
3.000094366311555 -3.562613830609426e-05 0
3.000105758323751 -2.123369106297264e-05 0
2.999994045507895 -2.087910026304201e-06 0
2.999999992408707 -1.769315819226911e-10 0
3.000000000019726 -1.814302447943287e-13 0
3.00000001020398 -1.091935057101931e-08 0
2.999999999999976 -6.408359480025633e-15 0
3 -1.089495535438592e-16 0
2.999995386964171 -2.130568605349771e-06 0
2.999993610370525 2.506623835576949e-06 0
2.999996930207403 2.094257780458529e-06 0
3.000000000000058 -8.583326070470318e-15 0
2.999999999528701 3.476886852582691e-11 0
3.000000000015572 -3.526042673224189e-12 0
2.999999950009791 -2.901882662426072e-08 0
3.000000015776152 -4.189135979013672e-08 0
3.00000001266002 -7.470073609893186e-08 0
2.999998628422324 4.403368627273097e-08 0
2.99999991039082 2.61440838970431e-08 0
3.000000397836858 1.729049637795813e-08 0
2.999998602738482 -4.495991233066298e-08 0
2.999999999178879 1.618717179568158e-10 0
2.999999999997763 3.818109825796075e-13 0
3.000000000000004 -7.082246450445088e-16 0
3 7.171465068123004e-16 0
3.000002395977575 -7.687455416225619e-07 0
3.000001415933408 -7.509120256245221e-07 0
3.000000000001308 1.758669794975187e-14 0
2.999999999591721 -1.666582048748173e-11 0
3.000000156227656 -4.481365943180779e-09 0
2.999988766108598 -9.992887150969776e-07 0
2.999999448749965 4.484866714427848e-07 0
2.999999485767181 2.585821423338061e-08 0
3.000000405484593 -2.375735379843971e-07 0
2.999999993708528 -1.225321988016668e-09 0
2.999999995085043 -6.190521831696984e-09 0
2.999999997195111 1.86904075045108e-08 0
3.000000005574314 -5.672246168942184e-08 0
2.999999999123963 1.366322737391909e-08 0
2.999999994228441 2.508513554648693e-09 0
3.000000001450875 -2.452743920666977e-09 0
2.999999991457413 1.454026245590449e-08 0
3.000000001632129 -2.862448831225352e-09 0
3.000000001988326 -2.066506441098492e-09 0
2.999999999138862 1.021297923973479e-09 0
3.000000002360445 -2.148864240184834e-09 0
1.897004879162649 0.003780150940754417 0
2.999590679313628 0.0001088034618743394 0
2.999999999814 1.256466517064696e-10 0
2.999997036123144 9.49676414195991e-07 0
3.000241064309781 1.210158729405054e-05 0
2.999999350702863 1.967670851686978e-07 0
2.998977866353759 3.954847858039272e-05 0
2.999999998611116 1.012955437102116e-09 0
2.999998059752412 1.326838122909081e-08 0
3.000000481087897 -2.976437560286112e-09 0
3.000007739526895 -3.182343453988967e-08 0
3.000005560830974 9.098846112509264e-07 0
2.999866167723976 0.00525389315118208 0
3.000000001909793 5.594513368366774e-11 0
2.999996054930515 -1.075146207617147e-07 0
3.000000001586775 -1.586745040821e-10 0
3.00000003307596 -5.392796888108871e-09 0
2.999984597130172 1.741490506265593e-06 0
3.00000417090718 -7.499504334931397e-07 0
3.000000000001676 -8.879511894837511e-14 0
3.000000000008611 3.038088350463231e-12 0
2.999999999999961 -6.496216902676994e-14 0
3.000000000000002 -1.292603253792295e-16 0
3.000000000000007 -1.190236119360133e-15 0
3.000000000000909 -1.079772220719002e-13 0
3.000000000002113 -7.114181274489684e-14 0
2.999999999999999 4.184181611102505e-16 0
2.999999999183847 4.467622882059333e-11 0
2.999999999997588 6.752186287046447e-14 0
2.999999999999987 1.742790418991458e-16 0
2.999998092845178 1.089158275735007e-07 0
3.000000002808108 -8.013793847165188e-11 0
3.000000000094866 -4.447660666102384e-11 0
2.999999999999959 5.510637363353606e-15 0
3.000000000000002 1.37868126698187e-15 0
2.999999995904015 -2.637397770624785e-10 0
2.999999999997778 -2.423574212847815e-13 0
2.999999999999873 7.304599892778054e-14 0
3.000000000003423 1.546047445533838e-13 0
3 -1.655102126362192e-16 0
3.000000000000002 -8.772705254756628e-17 0
3.000000000000004 -4.114820414924042e-14 0
2.999999998437963 2.225971670179327e-09 0
3.000000000000008 5.578158698231243e-15 0
3.000000000000002 1.037106765389692e-18 0
2.999999999999987 2.072377532686934e-15 0
2.999999999948117 9.500675870927523e-12 0
2.999999999801249 -2.794902055896689e-12 0
2.999999999968427 -1.23546451871644e-13 0
3.000000015403559 -5.690992887416382e-09 0
2.999999972463793 1.192278099296363e-08 0
2.999999993673804 3.416743992015067e-09 0
3.000160347723121 -4.108926281529688e-06 0
2.996100061969486 0.0001438702244910026 0
3.000000009401417 -3.209958101078063e-10 0
2.999999468372851 7.481602710470862e-08 0
2.999999999816312 2.543079213222577e-10 0
2.999690501934714 -9.200765166275742e-05 0
3.000000059277609 8.850705098661362e-09 0
3.000000000281517 -1.961701829397842e-10 0
3.000000004632126 -3.148434614340411e-09 0
3.000000000689737 -6.621156673791076e-10 0
2.999974091019182 4.215387593748826e-08 0
2.999999513269903 -2.264727078358689e-08 0
3.000000159174359 -1.601971458538328e-09 0
2.999999999999394 -2.044003451718879e-09 0
3.000000000044424 5.974232091578051e-11 0
3.000000031908388 -1.070629305824457e-08 0
2.999948816441681 -3.169934113018965e-07 0
2.999999999949774 5.370910786018121e-11 0
3.000001285314307 1.512883599479709e-07 0
2.999989107176015 1.212137589196627e-06 0
3.000005046354949 -8.293111256385011e-07 0
2.99999867095466 2.722324498876637e-07 0
3.000005417138214 -8.018724397823108e-07 0
2.999951055028326 -1.101555102923824e-07 0
3.021261125412702 0.0001979147075293892 0
3.010937262001666 -0.000209909403079357 0
3.000000045286959 -2.133894135542269e-07 0
2.999999999973334 1.535714362399947e-11 0
2.999994528650436 8.010638023162453e-06 0
3.000012545383493 -3.222980418937183e-05 0
2.999985340363239 1.40334619592102e-06 0
2.999968212576551 2.712861702180796e-07 0
3.000000056804722 4.106455170124839e-07 0
2.934331029442343 0.01949891798925562 0
3.000001844812424 -1.112111112287194e-06 0
3.000000022272674 1.840964868101895e-08 0
3.000000045173379 -1.894333327332443e-08 0
3.000000000356319 -8.280231924451854e-09 0
2.999997999496046 3.114951992040277e-07 0
3.000000000022071 -1.8448386638729e-11 0
3.000075570607502 -3.298383527372358e-05 0
3.000003806471852 -2.161978791168881e-05 0
2.99999800334089 0.0001173088232966073 0
3.000126112963322 -7.820338497849821e-06 0
2.999982770234785 4.266148625155346e-07 0
2.999999999996808 2.668079060602896e-12 0
2.999999999871731 7.226968175158782e-11 0
3.000000321670896 -2.100530291303119e-08 0
2.999999907540203 5.376455896395657e-09 0
2.999999959908273 1.304391597517493e-09 0
3.000000026074047 -1.308519861490501e-09 0
3.000000007826608 -3.441417093043168e-10 0
2.999999992961085 3.164603237256698e-10 0
2.999999999758611 5.320241363851225e-11 0
3.000000001423731 -8.143580033339797e-11 0
2.999999999474474 1.549375474876637e-12 0
2.999999999919448 1.745601191329459e-11 0
3.000000000174322 -3.773909778881622e-12 0
2.999999999953239 -2.239562901833617e-12 0
2.9999999999789 1.158425242852889e-12 0
3.00000000001529 -1.103843157128891e-13 0
2.999999999997299 -1.231554661364032e-13 0
2.999999999998485 1.530712945931798e-13 0
3.000000000001665 -6.164935482738243e-14 0
2.999999999999615 -4.169330836101441e-14 0
2.999999999999688 4.466703314363531e-14 0
3.000000000000183 1.810146195734144e-15 0
3.00000000000001 -1.705955745570247e-14 0
2.999999999999967 4.032196360946014e-15 0
3.000000000000009 4.343514345065933e-15 0
3 -2.487072021642716e-15 0
2.999999999999999 -6.676445714395038e-16 0
3.000000000000001 8.715299223429355e-16 0
3 -1.227638042868562e-16 0
3.000000000000001 -1.914014910120113e-16 0
3 1.185021492726354e-16 0
3 2.106277446828631e-16 0
3.000000000000001 -1.576112816240333e-16 0
3 -2.199054567038815e-16 0
3 4.234332751387346e-16 0
2.999999999999999 2.415644577340514e-16 0
3.000000000000002 -1.078206647695946e-15 0
3.000000000000001 -5.25837907738628e-16 0
2.999999999999996 1.93284763685641e-15 0
3.000000000000003 -5.776531529516042e-16 0
2.999999999999997 -3.815398118396437e-16 0
2.999999999999987 5.760076148153039e-15 0
3.000000000000053 -1.743202618748461e-14 0
3.000000000000028 -2.063487110756787e-14 0
2.999999999999831 8.237130511305899e-14 0
2.999999999999993 3.500713616398327e-14 0
3.000000000000227 -2.083877030807509e-13 0
2.999999999999813 2.37211367017585e-14 0
3.000000000000407 1.788689244046396e-13 0
3.000000000000574 -3.239658615518504e-13 0
2.999999999997209 9.134515043738766e-13 0
2.999999999999648 8.352953725359066e-13 0
3.00000000000529 -4.33286505619312e-12 0
2.999999999997527 -1.998494497070894e-13 0
3.00000000000334 6.537003060586295e-12 0
3.000000000006416 -4.445957527881311e-12 0
2.999999999965929 1.001938730886919e-11 0
3.000000000002227 1.040907313738341e-11 0
3.00000000003651 -5.897323750573806e-11 0
2.999999999969698 3.946455494072947e-12 0
3.000000000105769 5.696395100071937e-11 0
3.000000000013759 -5.302507250144395e-11 0
2.999999999777896 1.895639515111985e-10 0
3.00000000010464 4.003429034285708e-11 0
2.999999999718692 -4.340537045273058e-10 0
2.999999999939714 1.665568794091544e-10 0
3.000000000730619 -3.769653746136099e-10 0
2.999999999671626 -2.011148716114529e-10 0
3.000000000982814 1.544850469274356e-09 0
2.999999999999669 -5.387767080110221e-10 0
2.999999998747557 1.489131803655087e-09 0
3.000000000784063 3.066701977853916e-10 0
2.999999996762736 -3.210508206253632e-09 0
3.000000000838995 1.610113417968754e-09 0
2.999969319698101 1.897836053306396e-07 0
3.000109823433347 6.736717006061243e-06 0
2.999999992512477 5.878124169681668e-09 0
3.000000007034321 -3.65623404637193e-09 0
3.000013958659235 -1.987318466459872e-06 0
2.999915343299002 1.490959597544283e-05 0
3.000293553787684 -8.068576647427548e-06 0
2.99999999834089 -6.809674152053248e-09 0
3.000000000026422 1.281974217830793e-09 0
3.000000011007161 1.685986713871587e-08 0
3.000000371800008 -6.539457000660455e-08 0
3.000238480646225 -1.090949196599086e-06 0
3.000119635952524 8.261487848559524e-06 0
2.999956288180522 -4.342238244468102e-05 0
3.000295096445607 4.498826866942572e-06 0
2.999948430932392 -1.854712214375769e-07 0
3.000067279428013 -2.49807606573744e-06 0
2.999972565716131 6.756314375532702e-07 0
2.999950333286003 -1.937510059848219e-06 0
3.000001508164492 1.311398786561971e-06 0
2.999960646553516 7.301561167727223e-08 0
3.000006073502251 -4.730708495844252e-08 0
3.000227226026456 -1.638911096556352e-06 0
3.000001535108878 -2.687427957214019e-07 0
2.99999875927867 -1.134236205835351e-08 0
2.999999627056133 2.2356707442307e-07 0
3.000000780220373 -8.902560424141587e-07 0
2.999999984510639 6.330611204834351e-09 0
2.999999999876347 5.123419760665036e-11 0
2.999999800492966 -5.220142972578104e-09 0
2.999999999999972 1.55474177174368e-14 0
2.994808080688597 -0.003011246991422264 0
2.999999382644779 3.554715578350895e-08 0
3.000000316088407 1.324263666045074e-08 0
3.00000019035032 -3.451843492740505e-09 0
2.99999991686292 -4.202017069786396e-09 0
2.99999995121337 -3.281624411746798e-11 0
3.000000022568194 8.371875346859587e-10 0
3.000000010263351 1.841963698173085e-11 0
2.999999993293886 -1.783836869914588e-10 0
2.99999999874935 7.039159689050365e-12 0
3.000000001740964 4.410500847490689e-11 0