<?xml version="1.0"?>
<VTKFile type="UnstructuredGrid">
  <UnstructuredGrid>
  <Piece NumberOfPoints="1224"  NumberOfCells="2290">
    <Points>
      <DataArray type="Float64" NumberOfComponents="3" format="ascii">
0 0 0
0.6 0 0
0.6 0.2 0
3 0.2 0
3 1 0
0 1 0
0.05454545454535233 0 0
0.1090909090906768 0 0
0.1636363636359771 0 0
0.2181818181812728 0 0
0.2727272727265793 0 0
0.3272727272720317 0 0
0.3818181818176247 0 0
0.4363636363632168 0 0
0.4909090909088285 0 0
0.5454545454544089 0 0
0.6 0.03999999999991203 0
0.6 0.07999999999979179 0
0.6 0.1199999999997886 0
0.6 0.1599999999998948 0
0.6510638297871261 0.2 0
0.7021276595742618 0.2 0
0.7531914893613819 0.2 0
0.8042553191485237 0.2 0
0.8553191489356438 0.2 0
0.9063829787228289 0.2 0
0.957446808509926 0.2 0
1.008510638297009 0.2 0
1.059574468084092 0.2 0
1.110638297871174 0.2 0
1.161702127658257 0.2 0
1.21276595744534 0.2 0
1.263829787232422 0.2 0
1.314893617019505 0.2 0
1.365957446806588 0.2 0
1.417021276593671 0.2 0
1.468085106380754 0.2 0
1.519148936167923 0.2 0
1.570212765955006 0.2 0
1.621276595742088 0.2 0
1.672340425529171 0.2 0
1.723404255316254 0.2 0
1.774468085103337 0.2 0
1.825531914890624 0.2 0
1.876595744677951 0.2 0
1.927659574465349 0.2 0
1.978723404252714 0.2 0
2.029787234040074 0.2 0
2.080851063827477 0.2 0
2.131914893614798 0.2 0
2.182978723402204 0.2 0
2.234042553189523 0.2 0
2.285106382976928 0.2 0
2.336170212764247 0.2 0
2.387234042551653 0.2 0
2.438297872338975 0.2 0
2.489361702126377 0.2 0
2.540425531913739 0.2 0
2.591489361701102 0.2 0
2.642553191488421 0.2 0
2.693617021275827 0.2 0
2.744680851063146 0.2 0
2.795744680850551 0.2 0
2.84680851063787 0.2 0
2.897872340425276 0.2 0
2.948936170212618 0.2 0
3 0.2533333333332341 0
3 0.3066666666664725 0
3 0.3599999999996274 0
3 0.413333333332804 0
3 0.4666666666659806 0
3 0.5199999999991571 0
3 0.5733333333323336 0
3 0.6266666666656895 0
3 0.6799999999991551 0
3 0.7333333333326146 0
3 0.7866666666660802 0
3 0.8399999999995775 0
3 0.8933333333330373 0
3 0.9466666666664969 0
2.949152542373491 1 0
2.898305084746983 1 0
2.847457627120474 1 0
2.796610169493702 1 0
2.745762711866469 1 0
2.694915254239208 1 0
2.644067796611963 1 0
2.593220338985156 1 0
2.542372881358647 1 0
2.491525423732018 1 0
2.44067796610481 1 0
2.389830508477549 1 0
2.338983050850287 1 0
2.288135593223026 1 0
2.237288135595765 1 0
2.186440677968504 1 0
2.135593220341243 1 0
2.084745762713982 1 0
2.033898305086721 1 0
1.983050847459614 1 0
1.932203389832729 1 0
1.881355932205844 1 0
1.830508474578958 1 0
1.779661016952073 1 0
1.728813559325189 1 0
1.677966101698303 1 0
1.627118644071418 1 0
1.576271186444533 1 0
1.525423728817648 1 0
1.474576271190575 1 0
1.423728813563314 1 0
1.372881355936053 1 0
1.322033898308791 1 0
1.27118644068153 1 0
1.220338983054269 1 0
1.169491525427008 1 0
1.118644067799747 1 0
1.067796610172485 1 0
1.016949152545224 1 0
0.9661016949179628 1 0
0.9152542372907018 1 0
0.8644067796634407 1 0
0.8135593220361792 1 0
0.7627118644089181 1 0
0.7118644067816566 1 0
0.661016949154396 1 0
0.6101694915271345 1 0
0.5593220338998739 1 0
0.5084745762726124 1 0
0.4576271186453518 1 0
0.4067796610180903 1 0
0.3559322033908292 1 0
0.3050847457635677 1 0
0.2542372881363066 1 0
0.2033898305090456 1 0
0.1525423728817841 1 0
0.101694915254523 1 0
0.05084745762726151 1 0
0 0.9473684210524125 0
0 0.8947368421048248 0
0 0.8421052631576025 0
0 0.7894736842105994 0
0 0.7368421052635962 0
0 0.6842105263165927 0
0 0.6315789473695894 0
0 0.5789473684225861 0
0 0.5263157894755828 0
0 0.4736842105282874 0
0 0.4210526315806998 0
0 0.3684210526331123 0
0 0.3157894736855248 0
0 0.2631578947379374 0
0 0.21052631579035 0
0 0.1578947368427625 0
0 0.1052631578951749 0
0 0.05263157894758741 0
0.4374856279758046 0.955462795473483 0
0.625531914893563 0.2394317949808221 0
0.7891616249544176 0.9557759867023439 0
2.570562443351098 0.9559758769411787 0
2.364406779663917 0.9559648099769389 0
2.161016949154874 0.9559648099769389 0
1.957627118646171 0.9559648099772646 0
1.756856606547665 0.9560078743553572 0
1.553415402058453 0.9561420672712786 0
1.347457627122422 0.95627738856474 0
1.144067796613377 0.9563034567995272 0
0.04146670856173688 0.5498854761242812 0
0.9828861012149002 0.2442383967812095 0
2.465390809289578 0.2421522008426663 0
2.259572257543314 0.243586373321511 0
2.055319178697841 0.24363095694403 0
1.851066099915384 0.2436741865527954 0
1.646810778591931 0.2437170671454607 0
1.442550972205278 0.2437587738062726 0
1.238275543433999 0.2442249255777628 0
0.5808319854219957 0.2417757800606361 0
0.6039807146029165 0.2785115072887754 0
2.951522810440164 0.5995349944823752 0
0.5591131416216563 0.2791940688436214 0
0.5817690965011905 0.3180386921514113 0
0.5363223429032008 0.3181181454258206 0
0.5590799034518541 0.3577335228902347 0
2.671507320584846 0.2416532643303031 0
0.5129751095268966 0.3576683284772433 0
0.5360042291720796 0.3976917483469583 0
0.5824744072527975 0.3977458985417416 0
0.5593202208963615 0.4382323507424581 0
0.6062221806132498 0.4382172989803606 0
0.5831398502988122 0.4790536480492864 0
0.630245509211025 0.4792447281197085 0
0.5373735766893435 0.4817209888486334 0
0.2780994584865757 0.9660670791366374 0
0.9407829849899363 0.9559852449915113 0
0.6069171020766708 0.5203953730037822 0
0.6544691944766102 0.5205851219036783 0
2.724115018794794 0.9563165682871465 0
0.04341732373162228 0.2894490564426765 0
0.6304562046384772 0.5622881188475496 0
0.6786259291441818 0.5621981517123112 0
0.03938236249337418 0.7091098825652095 0
0.2999999999993055 0.04723774929726795 0
0.7024556039582556 0.5200372393771872 0
0.726826368578132 0.562505099575485 0
0.6545296629344706 0.6041261864689124 0
0.6061411599039735 0.6041581669226386 0
2.954333097254252 0.4393531299125908 0
0.7512905139641642 0.5199435586712576 0
0.7757938242112172 0.5624873891767795 0
0.4902278874550028 0.3174350849704655 0
0.4661669324669476 0.3576870257641042 0
0.8003371868304782 0.5195844107098163 0
0.8251782158071723 0.5621174250913318 0
0.6300572939290072 0.6460588488486728 0
0.581677101888915 0.6462390077748084 0
0.7994632498085218 0.6067218912904607 0
0.850068894442807 0.6047738158182728 0
0.8747482025846163 0.5617915498272615 0
0.8998102571129438 0.6045430073239006 0
0.924588798996443 0.5614360364847856 0
0.9497125983499418 0.6046345614192383 0
0.9744389394813738 0.5613114208485291 0
0.9997656958801404 0.604758732930365 0
1.024028015453996 0.5597386087889248 0
1.050046148741532 0.6042836632406788 0
1.075213347289947 0.5607219500906248 0
1.100604808237692 0.6043040651294929 0
1.125727120818654 0.5598592244124957 0
1.151165990249003 0.6040638744783449 0
1.176319565514503 0.5595216793632644 0
1.201793840633129 0.6038781229769293 0
1.226960854257978 0.5600604284234054 0
1.252470704079807 0.6038664424080111 0
1.277198987313166 0.55874807111347 0
1.303148970446812 0.6035341865995129 0
1.328130525802366 0.5586520846649797 0
1.353966012915828 0.6034054551655909 0
1.379205474149696 0.558835304845746 0
1.404820923589671 0.6032503772964327 0
1.430092956912838 0.5587079795953892 0
1.455686300628245 0.6030926920218221 0
1.480963489515269 0.5580480170404921 0
1.506562983627252 0.6028436706904448 0
1.531847734917255 0.5577680566445021 0
1.557453558526421 0.6026435181305781 0
1.582745756648754 0.5575726351194972 0
1.608358176126191 0.6024617369905624 0
1.633656322435163 0.5573842056888257 0
1.659277805706528 0.6022873884346892 0
1.684577462424181 0.5572075399874397 0
1.710203504633815 0.6021111834258887 0
1.735506494091908 0.5570246051384745 0
1.761134606493805 0.6019307913070558 0
1.786441498808711 0.5568475628142857 0
1.812072359676459 0.6017522495250318 0
1.837381834584306 0.5566653603575672 0
1.863017119880456 0.601574020443024 0
1.888326681794851 0.5564884669211013 0
1.913963858781491 0.601395113412113 0
1.939274704592935 0.5563067813822595 0
1.964908406083961 0.6012129143420911 0
1.990224566339525 0.5561292537946573 0
2.015859329864652 0.601032757987411 0
2.041177190815608 0.5559477304122714 0
2.066818109147928 0.600855564813206 0
2.09213259478423 0.5557710179709322 0
2.117774443326183 0.6006760179252703 0
2.143088896138059 0.5555900146741853 0
2.168729305797513 0.6004921726308964 0
2.194045774061603 0.5554125217101814 0
2.219686577151481 0.6003111949874665 0
2.245003702950199 0.5552312296013228 0
2.270641766736839 0.6001298880828497 0
2.295962173634055 0.5550546947866846 0
2.321601310982481 0.599950595338254 0
2.346923922781879 0.5548708301001631 0
2.372568004594504 0.5997713467128002 0
2.397895756972162 0.5547000681173012 0
2.423546697517365 0.5996004731097838 0
2.448884659670238 0.5545095609010697 0
2.474538141419978 0.5994220729206983 0
2.499902931415869 0.5543494429014709 0
2.525546234724433 0.5993228147833797 0
2.550973655834774 0.5541346321759457 0
2.576685338327378 0.5992395038842441 0
2.602182482443039 0.5540180644105763 0
2.958944511946492 0.7598964409357507 0
2.628014314012249 0.5990918128353608 0
0.4429170888396284 0.3159793431387367 0
0.4184631156771032 0.357715436029677 0
0.3946070818022522 0.3157219358498637 0
0.3697276561976696 0.3576135465858128 0
2.449044355814981 0.643990885448769 0
2.24531935830005 0.6444881680698032 0
1.024857369602972 0.6487487015028032 0
2.041498164113345 0.6452136474256573 0
1.837701628146142 0.6459229900926835 0
0.3455853078837237 0.3150377509381005 0
0.3204780172155196 0.3574251905568473 0
0.3449438693484468 0.4002519798591844 0
1.633970683060678 0.6466170330762969 0
1.227333380683899 0.6479317947648683 0
1.430444030483603 0.6473399689389928 0
0.875196942148915 0.6483605753517908 0
0.6057010339261732 0.6883083412871458 0
0.5571396249147901 0.6885103796531055 0
2.653543252321963 0.5527758280498023 0
1.099471497978971 0.5148848291986879 0
2.602427017093663 0.6438096025956825 0
2.653851606946175 0.6437140715169269 0
1.353138019780104 0.5138574114565649 0
1.556762689169365 0.5115839513085039 0
1.760509743411542 0.5109012431757174 0
1.964341412665395 0.510388685431229 0
0.2953909602266698 0.4001745965167012 0
[...]
    <PointData>
      <DataArray type="Float64" NumberOfComponents="3" Name="Velocity" format="ascii">
2.999999990336964 0 0
0 0 0
0 0 0
3.197416879242321 0 0
3.199509728330471 0 0
3.000000000000099 0 0
3.00000005518753 0 0
2.999999620813184 0 0
3.000002095454449 0 0
2.999989925293418 0 0
3.000024267710939 0 0
3.000138468733215 0 0
2.997603751169133 0 0
3.012415082723311 0 0
3.025738361837057 0 0
2.122900461211977 0 0
0 0.008633613313963491 0
0 -0.004958463576934138 0
0 0.02925084454364037 0
0 0.1430232784893356 0
1.986383049402427 0 0
2.722680192406203 0 0
2.95175529626088 0 0
2.999581158909475 0 0
3.001782997435708 0 0
2.99995973957389 0 0
2.99989711225508 0 0
3.000026969410686 0 0
2.999999692750372 0 0
2.999998421541928 0 0
3.00000069506026 0 0
2.999999798641719 0 0
3.000000039763021 0 0
2.999999995265524 0 0
3.000000000481005 0 0
2.999999999652485 0 0
3.000000000203894 0 0
2.999999999923709 0 0
3.000000000022327 0 0
2.999999999994571 0 0
3.000000000001127 0 0
2.999999999999801 0 0
3.000000000000026 0 0
2.999999999999997 0 0
3.000000000000008 0 0
2.999999999999972 0 0
3.000000000000048 0 0
3.000000000000048 0 0
2.999999999999611 0 0
3.000000000000143 0 0
3.000000000004589 0 0
2.999999999987449 0 0
2.999999999953317 0 0
3.000000000417374 0 0
2.999999998887048 0 0
3.00000000151925 0 0
2.999999992234173 0 0
3.000000056185523 0 0
2.999999709913544 0 0
3.000001096851387 0 0
2.999999025849053 0 0
2.999984049105497 0 0
3.000107311543928 0 0
2.999714766172412 0 0
2.99891067042317 0 0
3.025616021106615 0 0
3.199340096978125 0.0006308177495938024 0
3.18924270767202 -0.0001759190304872788 0
3.190397733007792 0.0001257068838595195 0
3.190047526464946 -0.0001107205926503037 0
3.192121550236504 -0.0002124152109933695 0
3.19447311790098 -6.341405202334284e-05 0
3.192537657329866 0.000213062909623857 0
3.191814366760814 -0.0003896493511748549 0
3.195444613070489 -4.098570729368683e-05 0
3.193099170451313 0.0001201920499327454 0
3.194396607838125 0.0001370842746720251 0
3.190970521177572 0.0002094472282311016 0
3.189869345033249 -0.0006939041143584697 0
3.201933616188521 -0.0004254276489934981 0
3.021852100434751 0 0
2.999017572753596 0 0
2.999726026480675 0 0
3.00007868237244 0 0
2.999989067383326 0 0
2.999999253212024 0 0
3.000000853906185 0 0
2.999999759520172 0 0
3.000000050103792 0 0
2.999999990682322 0 0
3.000000002487747 0 0
2.999999998887446 0 0
3.000000000283241 0 0
2.999999999990474 0 0
2.999999999985687 0 0
3.000000000003568 0 0
3.000000000000275 0 0
2.99999999999961 0 0
3.00000000000011 0 0
2.999999999999984 0 0
3 0 0
3.000000000000001 0 0
3 0 0
3 0 0
3 0 0
3 0 0
3.000000000000001 0 0
3 0 0
2.999999999999999 0 0
3.000000000000006 0 0
3.000000000000004 0 0
2.99999999999996 0 0
3.000000000000023 0 0
3.000000000000179 0 0
2.999999999999768 0 0
2.999999999999369 0 0
3.000000000001039 0 0
3.000000000001978 0 0
2.999999999996648 0 0
2.999999999994244 0 0
3.000000000006189 0 0
3.000000000018979 0 0
3.000000000008809 0 0
2.999999999983728 0 0
2.999999999972724 0 0
2.999999999977776 0 0
2.999999999982201 0 0
2.999999999985154 0 0
2.99999999999942 0 0
3.000000000000867 0 0
2.999999999998802 0 0
3.000000000001488 0 0
3.000000000000802 0 0
3.000000000000073 0 0
3.000000000000026 0 0
3.00000000000002 0 0
3.000000000000046 0 0
2.999999999999939 0 0
3.000000000000111 0 0
2.999999999999879 0 0
3.000000000000599 0 0
2.999999999988403 0 0
3.000000000015744 0 0
2.999999999904456 0 0
3.000000000136677 0 0
3.000000000233755 0 0
2.999999999469114 0 0
3.000000000046978 0 0
3.000000003178592 0 0
3.000000004628107 0 0
3.000000004103948 0 0
2.999999988714595 0 0
2.99999994965861 0 0
2.99999992755808 0 0
2.999999948745826 0 0
2.999999974711013 0 0
3.000000000003328 -1.462415386168822e-11 0
2.053542414024063 0.2681318402269007 0
3.000000000004413 -1.095808097120504e-12 0
2.999999939840357 2.169651665379479e-09 0
2.999999999980189 -1.612117059538278e-12 0
2.999999999997918 3.320782941486997e-13 0
3.00000000000001 -4.281570015348444e-15 0
3 -1.386611735768906e-16 0
3.000000000000002 -1.503279315510601e-15 0
3.000000000000078 2.030253244891344e-14 0
3.000000000000588 5.741672177269584e-13 0
3.000000000036344 -6.112997594417888e-11 0
3.000003495906247 1.722750665271851e-06 0
2.999999989531175 3.994728432218353e-10 0
3.000000000043345 -2.842163060827488e-12 0
3.000000000000183 3.951707867061797e-16 0
3.000000000000004 2.104229422991083e-15 0
3.000000000000595 -2.033934879489821e-14 0
2.999999999249026 1.582420072750497e-11 0
2.999999914462583 3.910068414929389e-09 0
2.268081688139739 0.2484364540904203 0
2.715314234458633 0.174441518310657 0
3.033937702305784 -7.041569594986289e-05 0
2.866246033892287 0.0766998044887628 0
2.962485297280732 0.0369277392548427 0
2.993235943535547 0.006911405274578575 0
3.00022044660432 0.001303627292966582 0
3.00000165062187 -1.652535829302177e-07 0
3.001156026006628 -0.0006395313492078454 0
3.000422570641166 -0.0004661666373151643 0
3.000934591716276 -0.0009249643336075816 0
3.000002036150354 -9.64799645647992e-05 0
3.000128014705411 -0.0003600246011029309 0
2.999960975422274 5.969603775432962e-05 0
2.99996758969537 5.690421244546501e-05 0
2.999981008369912 3.359645252892845e-05 0
3.000000000000312 -9.483836206211041e-13 0
3.000000000005182 4.841748782166715e-12 0
2.999997286716204 1.699086425258029e-05 0
2.999999628013434 2.698355722900542e-05 0
2.999991645950921 -1.371524520974362e-07 0
2.999999991407281 1.699273378773367e-09 0
3.000001057208892 -6.643748523368339e-06 0
3.000000071983962 -6.400411055126139e-06 0
3.000000000004466 8.321963673283454e-12 0
3.000158747789322 -3.180860503367876e-06 0
3.000005040864816 2.034248351746516e-05 0
2.999999125035912 -5.881453370085944e-06 0
2.999999862472763 -5.603203074035782e-07 0
2.999999878209393 3.643222905268793e-08 0
3.042753658517303 -0.0001224481398922904 0
3.000006327402667 3.697458339537134e-06 0
2.999998380226773 -3.240999206413424e-06 0
3.002293161244935 -0.0009399243855641971 0
3.00009015431365 -0.0001292128074962955 0
3.000002042809261 -5.596884627101754e-06 0
2.999998761343461 -2.918866961523274e-07 0
3.000000018573874 5.163336863381824e-07 0
2.999999965204343 3.022428423678646e-07 0
3.000000249556641 8.377321794044563e-07 0
3.000000394909657 3.713366400560623e-07 0
2.999999934185062 9.088535681400457e-07 0
3.000000166499532 -9.755480522870714e-08 0
3.000000531649877 4.363004633342332e-07 0
2.99999989048245 -1.574597232529416e-07 0
3.000000182028047 -2.083711223153661e-07 0
2.999999925464165 2.88595833563161e-08 0
2.999999899425576 -1.138851885487854e-07 0
3.000000017453914 3.995863783192133e-08 0
2.999999919842173 7.347439966884431e-08 0
3.000000021964057 -1.320973253608598e-08 0
3.000000025640168 1.010126655277829e-08 0
2.999999996480804 -6.380274220928501e-09 0
3.000000016215635 -1.539436881508315e-08 0
2.999999995292741 4.562289020240488e-09 0
2.999999991317067 3.332690740492143e-09 0
3.000000002077648 -7.701373890343342e-10 0
2.999999999977975 6.558777237997513e-10 0
3.000000000033782 -2.414148043103704e-10 0
3.000000001390353 -6.493293319157752e-10 0
2.999999999619988 2.067557689796524e-10 0
2.999999999269328 2.495480836121502e-10 0
3.000000000210882 -8.03286981498869e-11 0
3.000000000251226 -7.130630140612791e-11 0
2.999999999926129 2.257024755779118e-11 0
2.999999999927898 1.827711597871886e-11 0
3.000000000020469 -5.4313006311965e-12 0
3.000000000019122 -4.547762825952026e-12 0
2.99999999999498 1.266074710917927e-12 0
2.999999999994957 1.135079127345338e-12 0
3.000000000001228 -3.167541449220255e-13 0
3.00000000000134 -2.786528368569923e-13 0
2.999999999999678 8.516283512439555e-14 0
2.999999999999656 6.432336445095678e-14 0
3.00000000000009 -2.229100069189536e-14 0
3.000000000000084 -1.371689264935573e-14 0
2.999999999999977 5.860950882387683e-15 0
2.999999999999979 2.661882703055259e-15 0
3.000000000000004 -1.195090668885482e-15 0
3.000000000000002 -3.609229651637631e-16 0
2.999999999999998 -4.434350878300985e-16 0
3.000000000000003 -2.048623409416108e-16 0
2.999999999999997 3.460586589440798e-15 0
2.999999999999991 2.237870169419056e-15 0
3.000000000000019 -1.182417093108667e-14 0
2.999999999999987 -7.00240383392512e-15 0
2.999999999999952 2.551054989423112e-14 0
3.000000000000147 1.64632573151162e-14 0
2.999999999999937 -2.565234201873989e-14 0
2.999999999999662 -2.791476149268801e-14 0
3.000000000000637 -3.176340647487307e-14 0
2.999999999999587 3.412426814816295e-14 0
2.999999999999472 1.892642831543622e-13 0
3.000000000003817 -8.144153205930663e-15 0
2.999999999991106 -3.463195425585924e-13 0
3.000000000000704 -1.224757135734189e-13 0
3.00000000004053 2.867122664662444e-13 0
2.999999999920271 2.46360988598234e-13 0
2.999999999995594 -8.881239109768729e-13 0
3.000000000315111 2.544267905299373e-12 0
2.999999999365771 6.761841505999158e-12 0
2.99999999986397 -2.352691379884443e-11 0
3.000000002785264 -3.067453290258317e-11 0
2.999999997495418 1.021218652645031e-10 0
2.999999992581465 1.091921795299419e-10 0
3.000000009897912 -1.502281554809733e-10 0
3.000000021654258 -2.664287334472807e-10 0
2.99999998854992 -1.750323268071986e-09 0
2.999999904770823 2.395333585502752e-10 0
2.999999902524717 1.649446148471355e-08 0
3.051557439041124 9.645275068104135e-05 0
3.000000402512523 3.124454955739911e-09 0
3.000112270174102 -0.000121925792685278 0
2.99990181601609 4.177936206754634e-05 0
2.999876920414025 3.742448121131176e-05 0
3.000006235907311 2.45823778155702e-06 0
2.999999998003642 -1.939911410999945e-11 0
2.999999999999998 5.868081482933468e-13 0
3.00000002225367 -3.058028939336562e-09 0
3.00000000000004 -7.792106261059348e-14 0
3 1.05165399031483e-15 0
3.000016786672421 -5.560058931034575e-07 0
3.000004736793599 -2.255654844678358e-06 0
3.000004868242286 -2.694891776155511e-06 0
2.999999999999874 3.392039029157483e-14 0
3.000000000971355 -1.170800381104022e-09 0
2.999999999950062 2.187669057192595e-11 0
2.999999899793067 -1.273468345486791e-07 0
2.999999995746401 -1.161731123244898e-07 0
3.000000015629007 -9.535808923033913e-08 0
3.000000794849015 -5.48936837528261e-08 0
2.999999851690776 3.234241332854713e-08 0
2.999999892176843 -1.691239382132764e-08 0
3.000000866586883 4.610506272157565e-08 0
3.000000001788501 -5.726121418983319e-10 0
3.000000000012156 -2.295518219243743e-12 0
3.000000000000022 -7.07328982002583e-16 0
3.000000000000033 1.203457380209496e-14 0
2.999998443379819 4.041724744123471e-07 0
2.999998371332656 6.444009799069999e-07 0
2.999999999999388 -1.098540342095337e-13 0
2.999999999287568 1.184718189372824e-11 0
2.9999998741347 5.243235150617643e-09 0
3.000007762485446 4.721664856460579e-05 0
2.999999754510113 1.239600589223705e-06 0
3.000000375511416 -8.715055327243811e-09 0
3.000000048485667 1.510629814467896e-07 0
3.000000000940232 1.159404266290892e-08 0
3.000000003811504 -1.88141644568034e-09 0
2.999999995683605 2.084370720783277e-08 0
3.000000009504735 -3.43953524312496e-08 0
2.999999995412757 1.076941970119493e-08 0
2.999999988790372 1.224154942158272e-08 0
3.000000002452226 -2.492683828577013e-09 0
2.99999999019319 1.258326486777252e-08 0
3.000000002109476 -2.628066279235735e-09 0
3.000000004707706 -2.745075324815363e-09 0
2.999999998542632 1.002709140947553e-09 0
3.00000000139945 -1.947287985423958e-09 0
1.371591319592002 0.04466063679199982 0
2.999899453318276 -6.49015493772513e-06 0
3.000000000114943 1.599636678731106e-10 0
3.000002081472001 -8.370597467293234e-07 0
3.000039994198387 -1.361361121114367e-05 0
3.000000115276949 3.755120120833083e-08 0
3.003284050536713 -0.000406431618783193 0
2.99999999835288 1.117228033823834e-09 0
3.000001393785277 6.424403642821924e-10 0
2.999999795636629 -8.265884278605145e-11 0
2.999993672370094 7.292273958626898e-09 0
2.99999234999768 -4.673685888196303e-07 0
2.903768427799498 0.03673641453128198 0
2.999999999826035 1.902236292273212e-10 0
3.000002346486496 9.655847044137469e-08 0
2.999999996629494 6.313398303214631e-10 0
3.000000023163889 -2.652446061227563e-09 0
3.000018548990436 -1.588335744370267e-06 0
2.999997039035152 7.190350036435653e-07 0
3.000000000003483 -9.021799021358539e-14 0
3.000000000048855 5.466471391281858e-11 0
2.999999999998948 -2.858372725686757e-13 0
2.999999999999989 4.181446704441885e-16 0
2.999999999999996 3.090441043352729e-15 0
2.999999999995369 1.221350211348983e-12 0
2.999999999998057 -1.735820060737861e-13 0
3.000000000000032 7.466744212813868e-15 0
2.999999999617549 3.28112161657601e-12 0
2.999999999977555 1.1193492728163e-13 0
3.000000000000099 -5.712901710613154e-16 0
2.999995799356264 3.617832166691556e-07 0
2.999999988869849 4.083209049091541e-10 0
3.000000000041508 4.812365161176014e-11 0
2.999999999999968 6.728059496298954e-14 0
2.999999999999981 1.397393217752448e-15 0
2.999999992916448 -2.605426967924012e-10 0
2.999999999998548 -1.690265077192227e-12 0
2.999999999999738 -1.384547657972543e-13 0
3.000000000035326 1.320382759705779e-12 0
3.000000000000001 -1.16951270950699e-16 0
3.000000000000001 -2.961094402922962e-15 0
3.000000000000196 -6.342887355642499e-14 0
2.999999994762955 2.877916370074766e-09 0
3.000000000000027 2.33979840099924e-14 0
3 1.380122911875542e-15 0
3.000000000000636 -8.258771622493873e-14 0
3.000000000177622 -4.219624318947309e-11 0
3.000000000345204 -4.954964428842002e-13 0
3.000000000028379 5.003648811234182e-13 0
3.000000035812976 -1.523826740024476e-08 0
2.999999912834884 -2.536140059883663e-09 0
2.999999978792363 1.359279093282825e-08 0
3.000032846003808 3.762390407625631e-06 0
2.999290719808107 0.0001444043794225415 0
2.999999991919259 2.273554261855529e-10 0
3.000000083771304 5.505893350444173e-08 0
2.999999999849061 3.135292200016061e-10 0
3.000952919926615 -0.001014508789044186 0
3.000000090776777 -4.530735160442879e-08 0
3.000000000224067 -2.221453272520572e-10 0
3.0000000067866 -3.982905307162571e-09 0
2.999999998383544 4.586341116494096e-11 0
3.000013031160517 -1.250507330863417e-07 0
3.000000334850543 2.106937925894243e-09 0
2.999999881609134 5.662929417487993e-09 0
3.000000001036029 -2.063212089798419e-09 0
3.000000000028809 5.392171773937891e-11 0
3.000000070220108 -8.895638730856883e-08 0
3.000057375488874 -1.143216132073534e-06 0
2.999999999869536 5.204726408427089e-11 0
3.000002006383204 -1.947808691678468e-06 0
3.000007676499165 -5.889662965734208e-07 0
2.999994765271023 1.194048901189197e-06 0
3.000000433519461 -1.908091859325408e-07 0
2.999992038985182 5.143961781640377e-07 0
3.000055707880957 1.139584499942653e-06 0
3.044051484186288 0.0003410132481069315 0
3.031074851888504 -0.0004050939170475895 0
2.999999048524049 5.907370208446713e-07 0
3.000000000013509 1.893315476212417e-11 0
3.00001543655737 1.319364772526553e-05 0
2.999932268036544 2.516646189588624e-05 0
2.999997212336094 5.544809301988327e-05 0
3.000016999945908 -7.983093396121409e-07 0
3.000000104713172 5.178720756193318e-07 0
2.794034176032087 0.06455994198024027 0
2.999999245669412 -2.374243056066099e-07 0
3.000000064963368 -3.440863992459676e-08 0
2.999999963753551 1.008297044009777e-08 0
2.999999965968303 1.218401128555998e-08 0
3.000001820783539 -3.33169583483153e-07 0
3.000000000027451 -2.119842464116824e-11 0
2.999855212563254 -0.000111883436838135 0
2.999907923517083 8.806404469646672e-05 0
3.000178756745181 -0.0006025882609297153 0
3.000031574261267 4.363061972749165e-06 0
3.000058896632207 -2.480022980617832e-07 0
2.999999999988918 3.05302992969529e-12 0
2.999999999849917 9.032719926075095e-11 0
2.999999887398937 1.406146252786981e-08 0
2.999999999241996 -1.995001001636674e-09 0
3.000000028635775 -1.931176141944043e-09 0
3.00000000549904 6.661627785496259e-11 0
2.999999992136305 4.208795944158197e-10 0
2.99999999888974 3.598389686185028e-11 0
3.000000002641787 -8.438857947187021e-11 0
2.999999999538181 -1.238396599433478e-11 0
2.999999999434758 2.222268593477912e-11 0
3.000000000298634 -4.351653378468796e-12 0
2.999999999992164 -4.444084977487638e-12 0
2.999999999945512 5.159334132072625e-12 0
3.000000000038487 -8.594296167618014e-13 0
2.999999999994778 -1.616889704940705e-12 0
2.999999999989069 1.057988988414281e-12 0
3.000000000005399 -2.601282445607143e-14 0
3.000000000001403 -4.790476984700473e-13 0
2.999999999998448 2.389102885748891e-13 0
2.999999999999968 1.85783993169289e-13 0
3.000000000000296 -1.341438737581406e-13 0
2.99999999999999 -7.847611119900513e-14 0
2.99999999999994 5.969426314354049e-14 0
3.000000000000011 2.932210847348051e-14 0
3.000000000000014 -2.776150522509078e-14 0
2.999999999999989 -5.314573704018705e-15 0
2.999999999999999 1.207803750481589e-14 0
3.000000000000006 -2.148976548418745e-15 0
3.000000000000001 -4.172954111392808e-15 0
2.999999999999999 2.839816017517547e-15 0
3 1.247948512930378e-15 0
3 -9.917560260261253e-16 0
2.999999999999997 6.6922931016494e-17 0
3.000000000000007 -1.08409914713145e-15 0
3.000000000000001 -1.597523515200273e-15 0
2.999999999999991 3.959493232562775e-15 0
3 1.066474077766176e-15 0
3.000000000000006 -5.577472903143589e-15 0
2.999999999999987 4.463690742257694e-15 0
3.000000000000051 -1.296262452555332e-14 0
3.000000000000044 -2.796651947516595e-14 0
2.999999999999794 1.023629162618017e-13 0
2.999999999999957 6.410485039592271e-14 0
3.000000000000339 -3.068124603881918e-13 0
2.999999999999848 -3.065048995966792e-14 0
3.000000000000257 3.695397888241097e-13 0
3.000000000000524 -2.97916356814304e-13 0
2.999999999997584 8.182519997954619e-13 0
2.999999999999906 9.526345771532186e-13 0
3.000000000003282 -4.667838211522141e-12 0
2.999999999997229 -4.917770736623692e-13 0
3.000000000007813 6.713163262388913e-12 0
3.000000000003826 -3.960638799726253e-12 0
2.999999999972702 1.142091154648082e-11 0
3.0000000000122 8.44698718833448e-12 0
2.999999999980155 -5.27110029257915e-11 0
2.999999999968198 7.226169811769954e-12 0
3.000000000172758 2.23098102216903e-11 0
2.999999999958217 -4.449571146917819e-11 0
2.999999999996131 2.096014010700581e-10 0
3.000000000166343 4.275322601086044e-12 0
2.999999999219116 -2.349456900924889e-10 0
3.000000000074778 1.392659742198051e-10 0
3.000000000381779 -5.266923982573981e-10 0
2.999999999476351 -1.090998023071469e-10 0
3.000000002225798 1.186247517216649e-09 0
2.999999999786545 -4.612681477908214e-10 0
2.999999999135513 1.388037541790263e-09 0
3.000000001372833 6.186941264894376e-10 0
2.999999993889342 -4.512931614291904e-09 0
3.000000001572986 1.798778763104404e-09 0
2.999999995401232 -7.608703690733731e-09 0
2.99999999968631 1.472878203076588e-10 0
3.000016346605042 3.384444592976338e-07 0
3.000037430137001 -3.302278713569574e-06 0
3.000000005912383 1.828323234391547e-10 0
3.000000003327887 -3.040293996802101e-09 0
2.999986854001206 1.671252410796502e-06 0
3.000105817831972 -2.126593727769386e-05 0
2.999821233492808 5.487715926308403e-06 0
3.000000000610979 -5.456637051795262e-10 0
2.999999998519956 -2.476033210307722e-09 0
3.000000017019481 3.153467536349186e-08 0
3.000000039346165 -3.027182926074273e-09 0
2.999687077973038 2.642660172494189e-07 0
3.000040952363687 -6.011074883139757e-06 0
2.999176158143896 -2.668138958451718e-05 0
2.999829546583648 -3.885002269495872e-07 0
3.000062132646548 5.989013015884086e-07 0
3.000055325319812 2.542912369063359e-06 0
3.000010333405719 -6.630275309897725e-07 0
3.000060716318838 -2.14699246770625e-06 0
2.999992529860264 -7.505509585832992e-07 0
3.0000241157665 -1.948410327157602e-07 0
2.999994564000958 6.065813200949132e-08 0
3.000029398706767 1.330730775091016e-07 0
2.999999752594076 1.885438821189715e-07 0
3.000000778347996 1.161021049429693e-08 0
2.999999800934044 2.698071735367829e-07 0
2.999998966222388 5.919468375438428e-07 0
3.000000006503595 -7.057594365682297e-10 0
2.999999999508632 -3.709718033066838e-10 0
2.999999833028072 1.025209699748731e-08 0
3.000000000000006 2.58985754803163e-14 0
2.661218687548256 -0.004086373905215557 0
3.000000416165115 -1.115101920055214e-08 0
2.999999925012895 -6.14733690713226e-09 0
2.999999882713524 -4.414675834991044e-09 0
2.999999987455717 1.079379207532631e-09 0
3.000000026806701 1.639839732841779e-09 0
3.000000008691009 -5.140318992237278e-11 0