<?xml version="1.0"?>
<VTKFile type="UnstructuredGrid">
  <UnstructuredGrid>
  <Piece NumberOfPoints="1224"  NumberOfCells="2290">
    <Points>
      <DataArray type="Float64" NumberOfComponents="3" format="ascii">
0 0 0
0.6 0 0
0.6 0.2 0
72 0.2 0
72 1 0
0 1 0
0.05454545454535233 0 0
0.1090909090906768 0 0
0.1636363636359771 0 0
0.2181818181812728 0 0
0.2727272727265793 0 0
0.3272727272720317 0 0
0.3818181818176247 0 0
0.4363636363632168 0 0
0.4909090909088285 0 0
0.5454545454544089 0 0
0.6 0.03999999999991203 0
0.6 0.07999999999979179 0
0.6 0.1199999999997886 0
0.6 0.1599999999998948 0
6.955567861322838 0.2 0
8.952097080948775 0.2 0
10.63809538144058 0.2 0
12.22202438358882 0.2 0
13.74349134698401 0.2 0
15.22566382541287 0.2 0
16.67996728680248 0.2 0
18.11505497561731 0.2 0
19.53631177349983 0.2 0
20.94734283755582 0.2 0
22.35070442905193 0.2 0
23.7482340181212 0.2 0
25.1412745468701 0.2 0
26.53085550074248 0.2 0
27.9177259449842 0.2 0
29.30245574946614 0.2 0
30.6854943854275 0.2 0
32.06718988306962 0.2 0
33.44781485907522 0.2 0
34.82758331697721 0.2 0
36.20666503806861 0.2 0
37.58519458128617 0.2 0
38.96327948558435 0.2 0
40.3410055613835 0.2 0
41.71844176390745 0.2 0
43.09564339775439 0.2 0
44.47265508159087 0.2 0
45.8495127379222 0.2 0
47.22624543327883 0.2 0
48.60287664631619 0.2 0
49.979425420658 0.2 0
51.35590718103045 0.2 0
52.7323344613946 0.2 0
54.10871743566754 0.2 0
55.48506436177787 0.2 0
56.86138196108192 0.2 0
58.237675889418 0.2 0
59.61395063234011 0.2 0
60.99020972216454 0.2 0
62.36645632655729 0.2 0
63.74269291011398 0.2 0
65.11892151868891 0.2 0
66.49514390731272 0.2 0
67.87136177982535 0.2 0
69.24757631420088 0.2 0
70.62378871047044 0.2 0
72 0.2533333333332341 0
72 0.3066666666664725 0
72 0.3599999999996274 0
72 0.413333333332804 0
72 0.4666666666659806 0
72 0.5199999999991571 0
72 0.5733333333323336 0
72 0.6266666666656895 0
72 0.6799999999991551 0
72 0.7333333333326146 0
72 0.7866666666660802 0
72 0.8399999999995775 0
72 0.8933333333330373 0
72 0.9466666666664969 0
70.629671180438 1 0
69.25934339308489 1 0
67.88901771822769 1 0
66.51869536123733 1 0
65.14837759808071 1 0
63.77806588628597 1 0
62.40776206600857 1 0
61.03746796366104 1 0
59.66718644552111 1 0
58.29692014659942 1 0
56.92667276836071 1 0
55.5564489749537 1 0
54.18625375336542 1 0
52.8160941928618 1 0
51.44597778261496 1 0
50.07591519838437 1 0
48.70591763793185 1 0
47.33600167204527 1 0
45.96618323724915 1 0
44.59648772355067 1 0
43.22693991615172 1 0
41.85757706709717 1 0
40.4884407034162 1 0
39.11958178494158 1 0
37.75106484073655 1 0
36.38296930813966 1 0
35.01539227297268 1 0
33.64845477040522 1 0
32.28230901810208 1 0
30.91713030664078 1 0
29.55314050694792 1 0
28.19063919557889 1 0
26.82993341136609 1 0
25.47147281030878 1 0
24.11576267968599 1 0
22.76343238490881 1 0
21.41525546948057 1 0
20.0721614076973 1 0
18.7352949254071 1 0
17.40599183267205 1 0
16.08583793684663 1 0
14.77668721462013 1 0
13.48037920480033 1 0
12.19874281172893 1 0
10.93356381993144 1 0
9.687478422479543 1 0
8.464241433092567 1 0
7.271655859759203 1 0
6.123480274500168 1 0
5.041404479328127 1 0
4.039774184352969 1 0
3.138794081942303 1 0
2.346996381895465 1 0
1.710535776378137 1 0
1.196221384858124 1 0
0.7947365285062058 1 0
0.4825964544250285 1 0
0.2244694629748143 1 0
0 0.9473684210524125 0
0 0.8947368421048248 0
0 0.8421052631576025 0
0 0.7894736842105994 0
0 0.7368421052635962 0
0 0.6842105263165927 0
0 0.6315789473695894 0
0 0.5789473684225861 0
0 0.5263157894755828 0
0 0.4736842105282874 0
0 0.4210526315806998 0
0 0.3684210526331123 0
0 0.3157894736855248 0
0 0.2631578947379374 0
0 0.21052631579035 0
0 0.1578947368427625 0
0 0.1052631578951749 0
0 0.05263157894758741 0
4.625043252001152 0.955462795473483 0
5.538057909455795 0.2394317949808221 0
12.85926127896914 0.9557759867023439 0
60.42685660494455 0.9559758769411787 0
54.87133586784548 0.9559648099769389 0
49.39088147379908 0.9559648099769389 0
43.91163518075447 0.9559648099772646 0
38.50564434304812 0.9560078743553572 0
33.03397842882058 0.9561420672712786 0
27.50938898613702 0.95627738856474 0
22.08740757236972 0.9563034567995272 0
0.1121951093042783 0.5498854761242812 0
17.4018701670154 0.2442383967812095 0
57.59161209192025 0.2421522008426663 0
52.04408471099003 0.243586373321511 0
46.53793338775305 0.24363095694403 0
41.02990773220532 0.2436741865527954 0
35.51747190307825 0.2437170671454607 0
29.99460323241335 0.2437587738062726 0
24.44591807573307 0.2442249255777628 0
2.834653472635047 0.2417757800606361 0
5.311319577822808 0.2785115072887754 0
70.69352503357362 0.5995349944823752 0
3.337898766510621 0.2791940688436214 0
5.119201618395286 0.3180386921514113 0
3.502050104628855 0.3181181454258206 0
4.91059523292434 0.3577335228902347 0
63.14681162711171 0.2416532643303031 0
3.506737916871982 0.3576683284772433 0
4.686839421529979 0.3976917483469583 0
6.051749255499556 0.3977458985417416 0
5.71450988243083 0.4382323507424581 0
7.03950317983124 0.4382172989803606 0
6.642015696285341 0.4790536480492864 0
7.927372246306512 0.4792447281197085 0
5.439293225960662 0.4817209888486334 0
1.991297622241888 0.9660670791366374 0
16.74464077484071 0.9559852449915113 0
7.486258802589977 0.5203953730037822 0
8.75011479945463 0.5205851219036783 0
64.56498058948985 0.9563165682871465 0
0.05678590498357464 0.2894490564426765 0
8.266808563943762 0.5622881188475496 0
9.523185455598789 0.5621981517123112 0
0.1418512211410361 0.7091098825652095 0
0.2791368441203788 0.04723774929726795 0
10.02867270788566 0.5200372393771872 0
10.78986469284235 0.562505099575485 0
9.018038714383939 0.6041261864689124 0
7.784531844018878 0.6041581669226386 0
70.76924959532178 0.4393531299125908 0
11.3353220566179 0.5199435586712576 0
12.0837175131842 0.5624873891767795 0
2.233170455444127 0.3174350849704655 0
2.371305735307559 0.3576870257641042 0
12.65227356982846 0.5195844107098163 0
13.39612528528998 0.5621174250913318 0
8.509416140312275 0.6460588488486728 0
7.305944499645377 0.6462390077748084 0
12.79075349327125 0.6067218912904607 0
14.12345397976366 0.6047738158182728 0
14.72076883916572 0.5617915498272615 0
15.44433072812753 0.6045430073239006 0
16.05780826620402 0.5614360364847856 0
16.7757734648251 0.6046345614192383 0
17.39869016884733 0.5613114208485291 0
18.11537918456558 0.604758732930365 0
18.73333670288531 0.5597386087889248 0
19.46359478099287 0.6042836632406788 0
20.1141343801879 0.5607219500906248 0
20.82161586550858 0.6043040651294929 0
21.4761038807091 0.5598592244124957 0
22.18098454180967 0.6040638744783449 0
22.84079747780571 0.5595216793632644 0
23.54316695447048 0.6038781229769293 0
24.20717075378699 0.5600604284234054 0
24.90738939834739 0.6038664424080111 0
25.56204285497847 0.55874807111347 0
26.27204768777973 0.6035341865995129 0
26.93590042053584 0.5586520846649797 0
27.64081748284084 0.6034054551655909 0
28.3134959642991 0.558835304845746 0
29.01082374434712 0.6032503772964327 0
29.68584279004693 0.5587079795953892 0
30.38127266570879 0.6030926920218221 0
31.05754895606789 0.5580480170404921 0
31.75213093298628 0.6028436706904448 0
32.42955553470248 0.5577680566445021 0
33.1234479260109 0.6026435181305781 0
33.8018352257095 0.5575726351194972 0
34.49520083754211 0.6024617369905624 0
35.17436452964592 0.5573842056888257 0
35.86739865430245 0.6022873884346892 0
36.54709841686943 0.5572075399874397 0
37.23978776506224 0.6021111834258887 0
37.91997873105738 0.5570246051384745 0
38.61234278616629 0.6019307913070558 0
39.29296385882682 0.5568475628142857 0
39.98509178367208 0.6017522495250318 0
40.66604565309626 0.5566653603575672 0
41.35804018262275 0.601574020443024 0
42.0392097756655 0.5564884669211013 0
42.73104949833223 0.601395113412113 0
43.41242697830624 0.5563067813822595 0
44.1040054031733 0.6012129143420911 0
44.7856668845908 0.5561292537946573 0
45.4771372321313 0.601032757987411 0
46.15895897902536 0.5559477304122714 0
46.85048382696265 0.600855564813206 0
47.53230765553336 0.5557710179709322 0
48.22376669213494 0.6006760179252703 0
48.90566537392137 0.5555900146741853 0
49.59701145957906 0.6004921726308964 0
50.27902617780219 0.5554125217101814 0
50.97032235578371 0.6003111949874665 0
51.6524050774789 0.5552312296013228 0
52.34357801286362 0.6001298880828497 0
53.02579018595653 0.5550546947866846 0
53.71695166733475 0.599950595338254 0
54.39925673578506 0.5548708301001631 0
55.09051846753572 0.5997713467128002 0
55.77298944172711 0.5547000681173012 0
56.46440901429812 0.5996004731097838 0
57.14717749332701 0.5545095609010697 0
57.83864341498991 0.5994220729206983 0
58.52215332234685 0.5543494429014709 0
59.21332681139962 0.5993228147833797 0
59.89853961038344 0.5541346321759457 0
60.59154110044271 0.5992395038842441 0
61.27864543466398 0.5540180644105763 0
70.89355433509978 0.7598964409357507 0
61.97487246499493 0.5990918128353608 0
1.449348480055819 0.3159793431387367 0
1.60336668235561 0.357715436029677 0
0.97034167452951 0.3157219358498637 0
1.087248125341499 0.3576135465858128 0
57.15167421838252 0.643990885448769 0
51.66134878855751 0.6444881680698032 0
18.81797008840119 0.6487487015028032 0
46.16859578957797 0.6452136474256573 0
40.67689812860048 0.6459229900926835 0
0.6672649439961705 0.3150377509381005 0
0.7495267790977872 0.3574251905568473 0
1.15108046819105 0.4002519798591844 0
35.18792248463806 0.6466170330762969 0
24.24376191310389 0.6479317947648683 0
29.70689746891711 0.6473399689389928 0
14.84331077832222 0.6483605753517908 0
8.009059207078311 0.6883083412871458 0
6.831732547260304 0.6885103796531055 0
62.66284311295529 0.5527758280498023 0
20.74400819735159 0.5148848291986879 0
61.28533787095483 0.6438096025956825 0
62.67123586216281 0.6437140715169269 0
27.60240128013879 0.5138574114565649 0
33.09778261560171 0.5115839513085039 0
38.59243076721148 0.5109012431757174 0
44.08737722384929 0.510388685431229 0
0.7946886282705358 0.4001745965167012 0
1.168013656652262 0.4433206937839571 0
49.58245117005231 0.5096846626216972 0
55.07805589969692 0.5089830538848221 0
[...]
    <PointData>
      <DataArray type="Float64" NumberOfComponents="3" Name="Velocity" format="ascii">
-nan -nan 0
-nan -nan 0
-nan -nan 0
-nan -nan 0
-nan -nan 0
-nan -nan 0
-nan -nan 0
-nan -nan 0
-nan -nan 0
-nan -nan 0
-nan -nan 0
-nan -nan 0
-nan -nan 0
-nan -nan 0
-nan -nan 0
-nan -nan 0
-nan -nan 0
-nan -nan 0
-nan -nan 0
-nan -nan 0
-nan -nan 0
-nan -nan 0
-nan -nan 0
-nan -nan 0
-nan -nan 0
-nan -nan 0
-nan -nan 0
-nan -nan 0
-nan -nan 0
-nan -nan 0
-nan -nan 0
-nan -nan 0
-nan -nan 0
-nan -nan 0
-nan -nan 0
-nan -nan 0
-nan -nan 0
-nan -nan 0
-nan -nan 0
-nan -nan 0
-nan -nan 0
-nan -nan 0
-nan -nan 0
-nan -nan 0
-nan -nan 0
-nan -nan 0
-nan -nan 0
-nan -nan 0
-nan -nan 0
-nan -nan 0
-nan -nan 0
-nan -nan 0
-nan -nan 0
-nan -nan 0
-nan -nan 0
-nan -nan 0
-nan -nan 0
-nan -nan 0
-nan -nan 0
-nan -nan 0
-nan -nan 0
-nan -nan 0
-nan -nan 0
-nan -nan 0
-nan -nan 0
-nan -nan 0
-nan -nan 0
-nan -nan 0
-nan -nan 0
-nan -nan 0
-nan -nan 0
-nan -nan 0
-nan -nan 0
-nan -nan 0
-nan -nan 0
-nan -nan 0
-nan -nan 0
-nan -nan 0
-nan -nan 0
-nan -nan 0
-nan -nan 0
-nan -nan 0
-nan -nan 0
-nan -nan 0
-nan -nan 0
-nan -nan 0
-nan -nan 0
-nan -nan 0
-nan -nan 0
-nan -nan 0
-nan -nan 0
-nan -nan 0
-nan -nan 0
-nan -nan 0
-nan -nan 0
-nan -nan 0
-nan -nan 0
-nan -nan 0
-nan -nan 0
-nan -nan 0
-nan -nan 0
-nan -nan 0
-nan -nan 0
-nan -nan 0
-nan -nan 0
-nan -nan 0
-nan -nan 0
-nan -nan 0
-nan -nan 0
-nan -nan 0
-nan -nan 0
-nan -nan 0
-nan -nan 0
-nan -nan 0
-nan -nan 0
-nan -nan 0
-nan -nan 0
-nan -nan 0
-nan -nan 0
-nan -nan 0
-nan -nan 0
-nan -nan 0
-nan -nan 0
-nan -nan 0
-nan -nan 0
-nan -nan 0
-nan -nan 0
-nan -nan 0
-nan -nan 0
-nan -nan 0
-nan -nan 0
-nan -nan 0
-nan -nan 0
-nan -nan 0
-nan -nan 0
-nan -nan 0
-nan -nan 0
-nan -nan 0
-nan -nan 0
-nan -nan 0
-nan -nan 0
-nan -nan 0
-nan -nan 0
-nan -nan 0
-nan -nan 0
-nan -nan 0
-nan -nan 0
-nan -nan 0
-nan -nan 0
-nan -nan 0
-nan -nan 0
-nan -nan 0
-nan -nan 0
-nan -nan 0
-nan -nan 0
-nan -nan 0
-nan -nan 0
-nan -nan 0
-nan -nan 0
-nan -nan 0
-nan -nan 0
-nan -nan 0
-nan -nan 0
-nan -nan 0
-nan -nan 0
-nan -nan 0
-nan -nan 0
-nan -nan 0
-nan -nan 0
-nan -nan 0
-nan -nan 0
-nan -nan 0
-nan -nan 0
-nan -nan 0
-nan -nan 0
-nan -nan 0
-nan -nan 0
-nan -nan 0
-nan -nan 0
-nan -nan 0
-nan -nan 0
-nan -nan 0
-nan -nan 0
-nan -nan 0
-nan -nan 0
-nan -nan 0
-nan -nan 0
-nan -nan 0
-nan -nan 0
-nan -nan 0
-nan -nan 0
-nan -nan 0
-nan -nan 0
-nan -nan 0
-nan -nan 0
-nan -nan 0
-nan -nan 0
-nan -nan 0
-nan -nan 0
-nan -nan 0
-nan -nan 0
-nan -nan 0
-nan -nan 0
-nan -nan 0
-nan -nan 0
-nan -nan 0
-nan -nan 0
-nan -nan 0
-nan -nan 0
-nan -nan 0
-nan -nan 0
-nan -nan 0
-nan -nan 0
-nan -nan 0
-nan -nan 0
-nan -nan 0
-nan -nan 0
-nan -nan 0
-nan -nan 0
-nan -nan 0
-nan -nan 0
-nan -nan 0
-nan -nan 0
-nan -nan 0
-nan -nan 0
-nan -nan 0
-nan -nan 0
-nan -nan 0
-nan -nan 0
-nan -nan 0
-nan -nan 0
-nan -nan 0
-nan -nan 0
-nan -nan 0
-nan -nan 0
-nan -nan 0
-nan -nan 0
-nan -nan 0
-nan -nan 0
-nan -nan 0
-nan -nan 0
-nan -nan 0
-nan -nan 0
-nan -nan 0
-nan -nan 0
-nan -nan 0
-nan -nan 0
-nan -nan 0
-nan -nan 0
-nan -nan 0
-nan -nan 0
-nan -nan 0
-nan -nan 0
-nan -nan 0
-nan -nan 0
-nan -nan 0
-nan -nan 0
-nan -nan 0
-nan -nan 0
-nan -nan 0
-nan -nan 0
-nan -nan 0
-nan -nan 0
-nan -nan 0
-nan -nan 0
-nan -nan 0
-nan -nan 0
-nan -nan 0
-nan -nan 0
-nan -nan 0
-nan -nan 0
-nan -nan 0
-nan -nan 0
-nan -nan 0
-nan -nan 0
-nan -nan 0
-nan -nan 0
-nan -nan 0
-nan -nan 0
-nan -nan 0
-nan -nan 0
-nan -nan 0
-nan -nan 0
-nan -nan 0
-nan -nan 0
-nan -nan 0
-nan -nan 0
-nan -nan 0
-nan -nan 0
-nan -nan 0
-nan -nan 0
-nan -nan 0
-nan -nan 0
-nan -nan 0
-nan -nan 0
-nan -nan 0
-nan -nan 0
-nan -nan 0
-nan -nan 0
-nan -nan 0
-nan -nan 0
-nan -nan 0
-nan -nan 0
-nan -nan 0
-nan -nan 0
-nan -nan 0
-nan -nan 0
-nan -nan 0
-nan -nan 0
-nan -nan 0
-nan -nan 0
-nan -nan 0
-nan -nan 0
-nan -nan 0
-nan -nan 0
-nan -nan 0
-nan -nan 0
-nan -nan 0
-nan -nan 0
-nan -nan 0
-nan -nan 0
-nan -nan 0
-nan -nan 0
-nan -nan 0
-nan -nan 0
-nan -nan 0
-nan -nan 0
-nan -nan 0
-nan -nan 0
-nan -nan 0
-nan -nan 0
-nan -nan 0
-nan -nan 0
-nan -nan 0
-nan -nan 0
-nan -nan 0
-nan -nan 0
-nan -nan 0
-nan -nan 0
-nan -nan 0
-nan -nan 0
-nan -nan 0
-nan -nan 0
-nan -nan 0
-nan -nan 0
-nan -nan 0
-nan -nan 0
-nan -nan 0
-nan -nan 0
-nan -nan 0
-nan -nan 0
-nan -nan 0
-nan -nan 0
-nan -nan 0
-nan -nan 0
-nan -nan 0
-nan -nan 0
-nan -nan 0
-nan -nan 0
-nan -nan 0
-nan -nan 0
-nan -nan 0
-nan -nan 0
-nan -nan 0
-nan -nan 0
-nan -nan 0
-nan -nan 0
-nan -nan 0
-nan -nan 0
-nan -nan 0
-nan -nan 0
-nan -nan 0
-nan -nan 0
-nan -nan 0
-nan -nan 0
-nan -nan 0
-nan -nan 0
-nan -nan 0
-nan -nan 0
-nan -nan 0
-nan -nan 0
-nan -nan 0
-nan -nan 0
-nan -nan 0
-nan -nan 0
-nan -nan 0
-nan -nan 0
-nan -nan 0
-nan -nan 0
-nan -nan 0
-nan -nan 0
-nan -nan 0
-nan -nan 0
-nan -nan 0
-nan -nan 0
-nan -nan 0
-nan -nan 0
-nan -nan 0
-nan -nan 0
-nan -nan 0
-nan -nan 0
-nan -nan 0
-nan -nan 0
-nan -nan 0
-nan -nan 0
-nan -nan 0
-nan -nan 0
-nan -nan 0
-nan -nan 0
-nan -nan 0
-nan -nan 0
-nan -nan 0
-nan -nan 0
-nan -nan 0
-nan -nan 0
-nan -nan 0
-nan -nan 0
-nan -nan 0
-nan -nan 0
-nan -nan 0
-nan -nan 0
-nan -nan 0
-nan -nan 0
-nan -nan 0
-nan -nan 0
-nan -nan 0
-nan -nan 0
-nan -nan 0
-nan -nan 0
-nan -nan 0
-nan -nan 0
-nan -nan 0
-nan -nan 0
-nan -nan 0
-nan -nan 0
-nan -nan 0
-nan -nan 0
-nan -nan 0
-nan -nan 0
-nan -nan 0
-nan -nan 0
-nan -nan 0
-nan -nan 0
-nan -nan 0
-nan -nan 0
-nan -nan 0
-nan -nan 0
-nan -nan 0
-nan -nan 0
-nan -nan 0
-nan -nan 0
-nan -nan 0
-nan -nan 0
-nan -nan 0
-nan -nan 0
-nan -nan 0
-nan -nan 0
-nan -nan 0
-nan -nan 0
-nan -nan 0
-nan -nan 0
-nan -nan 0
-nan -nan 0
-nan -nan 0
-nan -nan 0
-nan -nan 0
-nan -nan 0
-nan -nan 0
-nan -nan 0
-nan -nan 0
-nan -nan 0
-nan -nan 0
-nan -nan 0
-nan -nan 0
-nan -nan 0
-nan -nan 0
-nan -nan 0
-nan -nan 0
-nan -nan 0
-nan -nan 0
-nan -nan 0
-nan -nan 0
-nan -nan 0
-nan -nan 0
-nan -nan 0
-nan -nan 0
-nan -nan 0
-nan -nan 0
-nan -nan 0
-nan -nan 0
-nan -nan 0
-nan -nan 0
-nan -nan 0
-nan -nan 0
-nan -nan 0
-nan -nan 0
-nan -nan 0
-nan -nan 0
-nan -nan 0
-nan -nan 0
-nan -nan 0
-nan -nan 0
-nan -nan 0
-nan -nan 0
-nan -nan 0
-nan -nan 0
-nan -nan 0
-nan -nan 0
-nan -nan 0
-nan -nan 0
-nan -nan 0
-nan -nan 0
-nan -nan 0
-nan -nan 0
-nan -nan 0
-nan -nan 0
-nan -nan 0
-nan -nan 0
-nan -nan 0
-nan -nan 0
-nan -nan 0
-nan -nan 0
-nan -nan 0
-nan -nan 0
-nan -nan 0
-nan -nan 0
-nan -nan 0
-nan -nan 0
-nan -nan 0
-nan -nan 0
-nan -nan 0
-nan -nan 0
-nan -nan 0
-nan -nan 0
-nan -nan 0
-nan -nan 0
-nan -nan 0
-nan -nan 0
-nan -nan 0
-nan -nan 0
-nan -nan 0
-nan -nan 0
-nan -nan 0
-nan -nan 0
-nan -nan 0
-nan -nan 0
-nan -nan 0
-nan -nan 0
-nan -nan 0
-nan -nan 0
-nan -nan 0
-nan -nan 0
-nan -nan 0
-nan -nan 0
-nan -nan 0
-nan -nan 0
-nan -nan 0
-nan -nan 0
-nan -nan 0
-nan -nan 0
-nan -nan 0
-nan -nan 0
-nan -nan 0
-nan -nan 0
-nan -nan 0
-nan -nan 0
-nan -nan 0
-nan -nan 0
-nan -nan 0
-nan -nan 0
-nan -nan 0
-nan -nan 0
-nan -nan 0
-nan -nan 0
-nan -nan 0
-nan -nan 0
-nan -nan 0
-nan -nan 0
-nan -nan 0
-nan -nan 0
-nan -nan 0
-nan -nan 0
-nan -nan 0
-nan -nan 0
-nan -nan 0
-nan -nan 0
-nan -nan 0
-nan -nan 0
-nan -nan 0
-nan -nan 0
-nan -nan 0
-nan -nan 0
-nan -nan 0
-nan -nan 0
-nan -nan 0
-nan -nan 0
-nan -nan 0
-nan -nan 0
-nan -nan 0
-nan -nan 0
-nan -nan 0
-nan -nan 0
-nan -nan 0
-nan -nan 0
-nan -nan 0
-nan -nan 0
-nan -nan 0
-nan -nan 0
-nan -nan 0
-nan -nan 0
-nan -nan 0
-nan -nan 0
-nan -nan 0
-nan -nan 0
-nan -nan 0
-nan -nan 0
-nan -nan 0
-nan -nan 0
-nan -nan 0
-nan -nan 0
-nan -nan 0
-nan -nan 0
-nan -nan 0
-nan -nan 0
-nan -nan 0
-nan -nan 0
-nan -nan 0
-nan -nan 0
-nan -nan 0
-nan -nan 0
-nan -nan 0
-nan -nan 0
-nan -nan 0
-nan -nan 0
-nan -nan 0
-nan -nan 0
-nan -nan 0
-nan -nan 0
-nan -nan 0
-nan -nan 0
-nan -nan 0
-nan -nan 0
-nan -nan 0
-nan -nan 0
-nan -nan 0
-nan -nan 0
-nan -nan 0
-nan -nan 0
-nan -nan 0
-nan -nan 0
-nan -nan 0
-nan -nan 0
-nan -nan 0
-nan -nan 0
-nan -nan 0
-nan -nan 0
-nan -nan 0
-nan -nan 0
-nan -nan 0
-nan -nan 0
-nan -nan 0
-nan -nan 0
-nan -nan 0
-nan -nan 0
-nan -nan 0
-nan -nan 0
-nan -nan 0
-nan -nan 0
-nan -nan 0
-nan -nan 0
-nan -nan 0
-nan -nan 0
-nan -nan 0
-nan -nan 0
-nan -nan 0
-nan -nan 0
-nan -nan 0
-nan -nan 0
-nan -nan 0
-nan -nan 0
-nan -nan 0
-nan -nan 0
-nan -nan 0
-nan -nan 0
-nan -nan 0
-nan -nan 0
-nan -nan 0
-nan -nan 0
-nan -nan 0
-nan -nan 0
-nan -nan 0
-nan -nan 0
-nan -nan 0
-nan -nan 0
-nan -nan 0
-nan -nan 0
-nan -nan 0
-nan -nan 0
-nan -nan 0
-nan -nan 0
-nan -nan 0
-nan -nan 0
-nan -nan 0
-nan -nan 0
-nan -nan 0
-nan -nan 0
-nan -nan 0
-nan -nan 0
-nan -nan 0
-nan -nan 0
-nan -nan 0
-nan -nan 0
-nan -nan 0
-nan -nan 0
-nan -nan 0
-nan -nan 0
-nan -nan 0
-nan -nan 0
-nan -nan 0
-nan -nan 0
-nan -nan 0
-nan -nan 0
-nan -nan 0
-nan -nan 0
-nan -nan 0
-nan -nan 0
-nan -nan 0
-nan -nan 0
-nan -nan 0
-nan -nan 0
-nan -nan 0
-nan -nan 0
-nan -nan 0
-nan -nan 0
-nan -nan 0
-nan -nan 0
-nan -nan 0
-nan -nan 0
-nan -nan 0
-nan -nan 0
-nan -nan 0
-nan -nan 0
-nan -nan 0
-nan -nan 0
-nan -nan 0
-nan -nan 0
-nan -nan 0
-nan -nan 0
-nan -nan 0
-nan -nan 0
-nan -nan 0
-nan -nan 0
-nan -nan 0
-nan -nan 0
-nan -nan 0
-nan -nan 0
-nan -nan 0
-nan -nan 0
-nan -nan 0
-nan -nan 0
-nan -nan 0
-nan -nan 0
-nan -nan 0
-nan -nan 0
-nan -nan 0
-nan -nan 0
-nan -nan 0
-nan -nan 0
-nan -nan 0
-nan -nan 0
-nan -nan 0
-nan -nan 0
-nan -nan 0
-nan -nan 0
-nan -nan 0
-nan -nan 0
-nan -nan 0
-nan -nan 0
-nan -nan 0
-nan -nan 0
-nan -nan 0
-nan -nan 0
-nan -nan 0
-nan -nan 0
-nan -nan 0
-nan -nan 0
-nan -nan 0
-nan -nan 0
-nan -nan 0
-nan -nan 0
-nan -nan 0
-nan -nan 0
-nan -nan 0
-nan -nan 0
-nan -nan 0
-nan -nan 0
-nan -nan 0
-nan -nan 0
-nan -nan 0
-nan -nan 0
-nan -nan 0
-nan -nan 0
-nan -nan 0
-nan -nan 0
-nan -nan 0
-nan -nan 0
-nan -nan 0
-nan -nan 0
-nan -nan 0
-nan -nan 0
-nan -nan 0
-nan -nan 0
-nan -nan 0
-nan -nan 0
-nan -nan 0
-nan -nan 0
-nan -nan 0
-nan -nan 0
-nan -nan 0
-nan -nan 0
-nan -nan 0
-nan -nan 0
-nan -nan 0
-nan -nan 0
-nan -nan 0
-nan -nan 0
-nan -nan 0
-nan -nan 0
-nan -nan 0
-nan -nan 0
-nan -nan 0
-nan -nan 0
-nan -nan 0
-nan -nan 0
-nan -nan 0
-nan -nan 0
-nan -nan 0
-nan -nan 0
-nan -nan 0
-nan -nan 0
-nan -nan 0
-nan -nan 0
-nan -nan 0
-nan -nan 0
-nan -nan 0
-nan -nan 0
-nan -nan 0
-nan -nan 0
-nan -nan 0
-nan -nan 0
-nan -nan 0
-nan -nan 0
-nan -nan 0
-nan -nan 0
-nan -nan 0
-nan -nan 0
-nan -nan 0
-nan -nan 0
-nan -nan 0
-nan -nan 0
-nan -nan 0
-nan -nan 0
-nan -nan 0
-nan -nan 0
-nan -nan 0
-nan -nan 0
-nan -nan 0
-nan -nan 0
-nan -nan 0
-nan -nan 0
-nan -nan 0
-nan -nan 0
-nan -nan 0
-nan -nan 0
-nan -nan 0
-nan -nan 0
-nan -nan 0
-nan -nan 0
-nan -nan 0
-nan -nan 0
-nan -nan 0
-nan -nan 0
-nan -nan 0
-nan -nan 0
-nan -nan 0
-nan -nan 0
-nan -nan 0
-nan -nan 0
-nan -nan 0
-nan -nan 0
-nan -nan 0
-nan -nan 0
-nan -nan 0
-nan -nan 0
-nan -nan 0
-nan -nan 0
-nan -nan 0
-nan -nan 0
-nan -nan 0
-nan -nan 0
-nan -nan 0
-nan -nan 0
-nan -nan 0
-nan -nan 0
-nan -nan 0
-nan -nan 0
-nan -nan 0
-nan -nan 0
-nan -nan 0
-nan -nan 0
-nan -nan 0
-nan -nan 0
-nan -nan 0
-nan -nan 0
-nan -nan 0
-nan -nan 0
-nan -nan 0
-nan -nan 0
-nan -nan 0
-nan -nan 0
-nan -nan 0
-nan -nan 0
-nan -nan 0
-nan -nan 0
-nan -nan 0
-nan -nan 0
-nan -nan 0
-nan -nan 0
-nan -nan 0
-nan -nan 0
-nan -nan 0
-nan -nan 0
-nan -nan 0
-nan -nan 0
-nan -nan 0
-nan -nan 0
-nan -nan 0
-nan -nan 0
-nan -nan 0
-nan -nan 0
-nan -nan 0
-nan -nan 0
-nan -nan 0
-nan -nan 0
-nan -nan 0
-nan -nan 0
-nan -nan 0
-nan -nan 0
-nan -nan 0
-nan -nan 0
-nan -nan 0
-nan -nan 0
-nan -nan 0
-nan -nan 0
-nan -nan 0
-nan -nan 0
-nan -nan 0
-nan -nan 0
-nan -nan 0
-nan -nan 0
-nan -nan 0
-nan -nan 0
-nan -nan 0
-nan -nan 0
-nan -nan 0
-nan -nan 0
-nan -nan 0
-nan -nan 0
-nan -nan 0
-nan -nan 0
-nan -nan 0
-nan -nan 0
-nan -nan 0
-nan -nan 0
-nan -nan 0
-nan -nan 0
-nan -nan 0
-nan -nan 0
-nan -nan 0
-nan -nan 0
-nan -nan 0
-nan -nan 0
-nan -nan 0
-nan -nan 0
-nan -nan 0
-nan -nan 0
-nan -nan 0
-nan -nan 0
-nan -nan 0
-nan -nan 0
-nan -nan 0
-nan -nan 0
-nan -nan 0
-nan -nan 0
-nan -nan 0
-nan -nan 0
-nan -nan 0
-nan -nan 0
-nan -nan 0
-nan -nan 0
-nan -nan 0
-nan -nan 0
-nan -nan 0
-nan -nan 0
-nan -nan 0
-nan -nan 0
-nan -nan 0
-nan -nan 0
-nan -nan 0
-nan -nan 0
-nan -nan 0
-nan -nan 0
-nan -nan 0
-nan -nan 0
-nan -nan 0
-nan -nan 0
-nan -nan 0
-nan -nan 0
-nan -nan 0
-nan -nan 0
-nan -nan 0
-nan -nan 0
-nan -nan 0
-nan -nan 0
-nan -nan 0
-nan -nan 0
-nan -nan 0
-nan -nan 0
-nan -nan 0
-nan -nan 0
-nan -nan 0
-nan -nan 0
-nan -nan 0
-nan -nan 0
-nan -nan 0
-nan -nan 0
-nan -nan 0
-nan -nan 0
-nan -nan 0
-nan -nan 0
-nan -nan 0
-nan -nan 0
-nan -nan 0
-nan -nan 0
-nan -nan 0
-nan -nan 0
-nan -nan 0
-nan -nan 0
-nan -nan 0
-nan -nan 0
-nan -nan 0
-nan -nan 0
-nan -nan 0
-nan -nan 0
-nan -nan 0
-nan -nan 0
-nan -nan 0
-nan -nan 0
-nan -nan 0
-nan -nan 0
-nan -nan 0
-nan -nan 0
-nan -nan 0
-nan -nan 0
-nan -nan 0
-nan -nan 0
-nan -nan 0
-nan -nan 0
-nan -nan 0
-nan -nan 0
-nan -nan 0
-nan -nan 0
-nan -nan 0
-nan -nan 0
-nan -nan 0
-nan -nan 0
-nan -nan 0
-nan -nan 0
-nan -nan 0
-nan -nan 0
-nan -nan 0
-nan -nan 0
-nan -nan 0
-nan -nan 0
-nan -nan 0
-nan -nan 0
-nan -nan 0
-nan -nan 0
-nan -nan 0
-nan -nan 0
-nan -nan 0
-nan -nan 0
-nan -nan 0
-nan -nan 0
-nan -nan 0
-nan -nan 0
-nan -nan 0
-nan -nan 0
-nan -nan 0
-nan -nan 0
-nan -nan 0
-nan -nan 0
-nan -nan 0
-nan -nan 0
-nan -nan 0
-nan -nan 0
-nan -nan 0
-nan -nan 0
-nan -nan 0
-nan -nan 0
-nan -nan 0
-nan -nan 0
-nan -nan 0
-nan -nan 0
-nan -nan 0
-nan -nan 0
-nan -nan 0
-nan -nan 0
-nan -nan 0
-nan -nan 0
-nan -nan 0
-nan -nan 0
-nan -nan 0
-nan -nan 0
-nan -nan 0
-nan -nan 0
-nan -nan 0
-nan -nan 0
-nan -nan 0
-nan -nan 0
-nan -nan 0
-nan -nan 0
-nan -nan 0
-nan -nan 0
-nan -nan 0
-nan -nan 0
-nan -nan 0
-nan -nan 0
-nan -nan 0
-nan -nan 0
-nan -nan 0
-nan -nan 0
-nan -nan 0
-nan -nan 0
-nan -nan 0
-nan -nan 0
-nan -nan 0
-nan -nan 0
-nan -nan 0
-nan -nan 0
-nan -nan 0
-nan -nan 0
-nan -nan 0
-nan -nan 0
-nan -nan 0
-nan -nan 0
-nan -nan 0
-nan -nan 0
-nan -nan 0
-nan -nan 0
-nan -nan 0
-nan -nan 0
-nan -nan 0
-nan -nan 0
-nan -nan 0
-nan -nan 0
-nan -nan 0
-nan -nan 0
-nan -nan 0
-nan -nan 0
-nan -nan 0
-nan -nan 0
-nan -nan 0
-nan -nan 0
-nan -nan 0
-nan -nan 0
-nan -nan 0
-nan -nan 0
-nan -nan 0
-nan -nan 0
-nan -nan 0
-nan -nan 0
-nan -nan 0
-nan -nan 0
-nan -nan 0
-nan -nan 0
-nan -nan 0
-nan -nan 0
-nan -nan 0
-nan -nan 0
-nan -nan 0
-nan -nan 0
-nan -nan 0
-nan -nan 0
-nan -nan 0
-nan -nan 0
-nan -nan 0
-nan -nan 0
-nan -nan 0
-nan -nan 0
-nan -nan 0
-nan -nan 0
-nan -nan 0
-nan -nan 0
-nan -nan 0
-nan -nan 0
-nan -nan 0
-nan -nan 0
-nan -nan 0
-nan -nan 0
-nan -nan 0
-nan -nan 0
-nan -nan 0
-nan -nan 0
-nan -nan 0
-nan -nan 0
-nan -nan 0
-nan -nan 0
-nan -nan 0
-nan -nan 0
-nan -nan 0
-nan -nan 0
-nan -nan 0
-nan -nan 0
      </DataArray> 
      <DataArray type="Float64" NumberOfComponents="3" Name="MeshDisp" format="ascii">
0 0 0
0 0 0
0 0 0
1 0 0
1 0 0
0 0 0
0 0 0
0 0 0
0 0 0
0 0 0
0 0 0
0 0 0
0 0 0
0 0 0
0 0 0
0 0 0
0 0 0
0 0 0
0 0 0
0 0 0
0.08654739719865373 0 0
0.1139997677550457 0 0
0.1373481437550255 0 0
0.1593566372229414 0 0
0.1805693167726368 0 0
0.2012965730654978 0 0
0.221665883103621 0 0
0.2417889530174617 0 0
0.2617357686042724 0 0
0.2815532054693335 0 0
0.301273409740284 0 0
0.3209192906410753 0 0
0.3405081667053506 0 0
0.3600527481252183 0 0
0.3795624710995975 0 0
0.3990446705401479 0 0
0.4185050179957157 0 0
0.4379479631218401 0 0
0.4573769783197875 0 0
0.4767948176515079 0 0
0.4962036603655975 0 0
0.515605249245174 0 0
0.5350009729313296 0 0
0.5543919501010603 0 0
0.5737790783376253 0 0
0.5931630838607671 0 0
0.6125445518552264 0 0
0.6319239570879859 0 0
0.6513016832780073 0 0
0.6706780426733163 0 0
0.6900532885267584 0 0
0.7094276274087683 0 0
0.7288012271354822 0 0
0.7481742246766635 0 0
0.7675467311972536 0 0
0.7869188376627635 0 0
0.8062906202760486 0 0
0.8256621399781068 0 0
0.8450334450145579 0 0
0.8644045785216434 0 0
0.8837755741518246 0 0
0.9031464599714446 0 0
0.9225172601128899 0 0
0.9418879977691317 0 0
0.9612586895070616 0 0
0.9806293521104277 0 0
1 0 0
0.9999999999999999 0 0
1 0 0
1 0 0
1 0 0
1 0 0
0.9999999999999999 0 0
0.9999999999999999 0 0
1 0 0
1 0 0
1 0 0
0.9999999999999999 0 0
1 0 0
0.9999999999999999 0 0
0.9807121499121935 0 0
0.9614243152410861 0 0
0.9421365111735881 0 0
0.9228487548135378 0 0
0.9035610643822111 0 0
0.8842734608573771 0 0
0.8649859708632835 0 0
0.8456986205582868 0 0
0.8264114517623806 0 0
0.8071245024987797 0 0
0.7878378265341295 0 0
0.7685514921729005 0 0
0.7492655718169658 0 0
0.7299801698414843 0 0
0.7106953953226284 0 0
0.6914114063323432 0 0
0.6721283670150962 0 0
0.6528465238730601 0 0
0.6335661092532924 0 0
0.6142875061976996 0 0
0.5950110784671563 0 0
0.5757373896316291 0 0
0.556467060470449 0 0
0.537200858287247 0 0
0.5179397567924326 0 0
0.498684965006794 0 0
0.4794379557076886 0 0
0.4602005861223271 0 0
0.4409751967058322 0 0
0.4217644836747488 0 0
0.4025718819752538 0 0
0.3834020417714543 0 0
0.3642597175743139 0 0
0.3451521136877019 0 0
0.3260872138898283 0 0
0.3070750482140323 0 0
0.2881279811631685 0 0
0.2692607035038324 0 0
0.2504916894560833 0 0
0.2318427417736731 0 0
0.2133406447197566 0 0
0.195018589465438 0 0
0.1769095317917474 0 0
0.159047201223859 0 0
0.1414658627927035 0 0
0.124210468113055 0 0
0.1073312624383553 0 0
0.09093754398353858 0 0
0.07520902770777248 0 0
0.06042655647448767 0 0
0.04677219308074225 0 0
0.03452880474869146 0 0
0.0238435963743549 0 0
0.01552800244147572 0 0
0.009202830267845468 0 0
0.004872086812470782 0 0
0.002269565018348791 0 0
0.0007662198442679684 0 0
0 0 0
0 0 0
0 0 0
0 0 0
0 0 0
0 0 0
0 0 0
0 0 0
0 0 0
0 0 0
0 0 0
0 0 0
0 0 0
0 0 0
0 0 0
0 0 0
0 0 0
0 0 0
0.05474704109127956 0 0
0.06722242828292478 0 0
0.1682472995527412 0 0
0.8371040617176057 0 0
0.7589083122047839 0 0
0.6817693899072165 0 0
0.6046481718248542 0 0
0.5285599972183894 0 0
0.4515531159882814 0 0
0.3738179010829071 0 0
0.2975733450867335 0 0
-5.365398971700427e-05 0 0
0.2317860163109841 0 0
0.7971970620852394 0 0
0.7191139158793918 0 0
0.6416135754846171 0 0
0.5640880788202408 0 0
0.4865040570424727 0 0
0.4087834635086264 0 0
0.3307294372098258 0 0
0.03040262757730332 0 0
0.06412905360456744 0 0
0.981610914730198 0 0
0.03726007540790675 0 0
0.06150787628561214 0 0
0.03949465537742061 0 0
0.05866250943811697 0 0
0.8753883431446412 0 0
0.03955450348818147 0 0
0.05561121021614985 0 0
0.07423099025817304 0 0
0.06962471681183194 0 0
0.08774245281044737 0 0
0.08230144727622274 0 0
0.0999291574894785 0 0
0.06586712869981244 0 0
0.01915697126022664 0 0
0.2225711081226023 0 0
0.09387354497093317 0 0
0.1112568143831789 0 0
0.8953495527654399 0 0
-0.0005723923826879243 0 0
0.1046031720134777 0 0
0.1219285548920438 0 0
0.0002696003617390169 0 0
-0.001013234632307812 0 0
0.1289174055986517 0 0
0.1394663268534861 0 0
0.11495602429192 0 0
0.09797333296888514 0 0
0.9826767640594825 0 0
0.1470362653771758 0 0
0.1574421311157181 0 0
0.02216150337406547 0 0
0.02405426499513683 0 0
0.1653577098099263 0 0
0.1757305314707933 0 0
0.1079470133808068 0 0
0.09140411330959303 0 0
0.1672895165424851 0 0
0.1858860872926737 0 0
0.19423423607761 0 0
0.2043575251758657 0 0
0.2129473762377618 0 0
0.2230074117571383 0 0
0.2317405952471718 0 0
0.2417930076272836 0 0
0.2504643990276998 0 0
0.2607154103806751 0 0
0.269850275009651 0 0
0.2797875361128537 0 0
0.2889827390139223 0 0
0.2988883373522817 0 0
0.3081623916242793 0 0
0.3180363850807579 0 0
0.3273724212444041 0 0
0.3372189913345363 0 0
0.3464258953547272 0 0
0.3564123061790486 0 0
0.3657504067105177 0 0
0.3756668814421019 0 0
0.3851304800295031 0 0
0.3949414542609292 0 0
0.4044390501907787 0 0
0.4142242798261143 0 0
0.4237403804358011 0 0
0.4335144153986718 0 0
0.4430473092930401 0 0
0.4528122048656611 0 0
0.4623591298526602 0 0
0.4721170481564376 0 0
0.4816752743806348 0 0
0.4914288628213085 0 0
0.5009949212336587 0 0
0.5107439141647727 0 0
0.520317106647371 0 0
0.5300617186518817 0 0
0.5396411343032126 0 0
0.5493825743473999 0 0