<?xml version="1.0"?>
<VTKFile type="UnstructuredGrid">
  <UnstructuredGrid>
  <Piece NumberOfPoints="1224"  NumberOfCells="2290">
    <Points>
      <DataArray type="Float64" NumberOfComponents="3" format="ascii">
0 0 0
0.6 0 0
0.6 0.2 0
3 0.2 0
3 1 0
0 1 0
0.05454545454535233 0 0
0.1090909090906768 0 0
0.1636363636359771 0 0
0.2181818181812728 0 0
0.2727272727265793 0 0
0.3272727272720317 0 0
0.3818181818176247 0 0
0.4363636363632168 0 0
0.4909090909088285 0 0
0.5454545454544089 0 0
0.6 0.03999999999991203 0
0.6 0.07999999999979179 0
0.6 0.1199999999997886 0
0.6 0.1599999999998948 0
0.6510638297871261 0.2 0
0.7021276595742618 0.2 0
0.7531914893613819 0.2 0
0.8042553191485237 0.2 0
0.8553191489356438 0.2 0
0.9063829787228289 0.2 0
0.957446808509926 0.2 0
1.008510638297009 0.2 0
1.059574468084092 0.2 0
1.110638297871174 0.2 0
1.161702127658257 0.2 0
1.21276595744534 0.2 0
1.263829787232422 0.2 0
1.314893617019505 0.2 0
1.365957446806588 0.2 0
1.417021276593671 0.2 0
1.468085106380754 0.2 0
1.519148936167923 0.2 0
1.570212765955006 0.2 0
1.621276595742088 0.2 0
1.672340425529171 0.2 0
1.723404255316254 0.2 0
1.774468085103337 0.2 0
1.825531914890624 0.2 0
1.876595744677951 0.2 0
1.927659574465349 0.2 0
1.978723404252714 0.2 0
2.029787234040074 0.2 0
2.080851063827477 0.2 0
2.131914893614798 0.2 0
2.182978723402204 0.2 0
2.234042553189523 0.2 0
2.285106382976928 0.2 0
2.336170212764247 0.2 0
2.387234042551653 0.2 0
2.438297872338975 0.2 0
2.489361702126377 0.2 0
2.540425531913739 0.2 0
2.591489361701102 0.2 0
2.642553191488421 0.2 0
2.693617021275827 0.2 0
2.744680851063146 0.2 0
2.795744680850551 0.2 0
2.84680851063787 0.2 0
2.897872340425276 0.2 0
2.948936170212618 0.2 0
3 0.2533333333332341 0
3 0.3066666666664725 0
3 0.3599999999996274 0
3 0.413333333332804 0
3 0.4666666666659806 0
3 0.5199999999991571 0
3 0.5733333333323336 0
3 0.6266666666656895 0
3 0.6799999999991551 0
3 0.7333333333326146 0
3 0.7866666666660802 0
3 0.8399999999995775 0
3 0.8933333333330373 0
3 0.9466666666664969 0
2.949152542373491 1 0
2.898305084746983 1 0
2.847457627120474 1 0
2.796610169493702 1 0
2.745762711866469 1 0
2.694915254239208 1 0
2.644067796611963 1 0
2.593220338985156 1 0
2.542372881358647 1 0
2.491525423732018 1 0
2.44067796610481 1 0
2.389830508477549 1 0
2.338983050850287 1 0
2.288135593223026 1 0
2.237288135595765 1 0
2.186440677968504 1 0
2.135593220341243 1 0
2.084745762713982 1 0
2.033898305086721 1 0
1.983050847459614 1 0
1.932203389832729 1 0
1.881355932205844 1 0
1.830508474578958 1 0
1.779661016952073 1 0
1.728813559325189 1 0
1.677966101698303 1 0
1.627118644071418 1 0
1.576271186444533 1 0
1.525423728817648 1 0
1.474576271190575 1 0
1.423728813563314 1 0
1.372881355936053 1 0
1.322033898308791 1 0
1.27118644068153 1 0
1.220338983054269 1 0
1.169491525427008 1 0
1.118644067799747 1 0
1.067796610172485 1 0
1.016949152545224 1 0
0.9661016949179628 1 0
0.9152542372907018 1 0
0.8644067796634407 1 0
0.8135593220361792 1 0
0.7627118644089181 1 0
0.7118644067816566 1 0
0.661016949154396 1 0
0.6101694915271345 1 0
0.5593220338998739 1 0
0.5084745762726124 1 0
0.4576271186453518 1 0
0.4067796610180903 1 0
0.3559322033908292 1 0
0.3050847457635677 1 0
0.2542372881363066 1 0
0.2033898305090456 1 0
0.1525423728817841 1 0
0.101694915254523 1 0
0.05084745762726151 1 0
0 0.9473684210524125 0
0 0.8947368421048248 0
0 0.8421052631576025 0
0 0.7894736842105994 0
0 0.7368421052635962 0
0 0.6842105263165927 0
0 0.6315789473695894 0
0 0.5789473684225861 0
0 0.5263157894755828 0
0 0.4736842105282874 0
0 0.4210526315806998 0
0 0.3684210526331123 0
0 0.3157894736855248 0
0 0.2631578947379374 0
0 0.21052631579035 0
0 0.1578947368427625 0
0 0.1052631578951749 0
0 0.05263157894758741 0
0.4374856279758046 0.955462795473483 0
0.625531914893563 0.2394317949808221 0
0.7891616249544176 0.9557759867023439 0
2.570562443351098 0.9559758769411787 0
2.364406779663917 0.9559648099769389 0
2.161016949154874 0.9559648099769389 0
1.957627118646171 0.9559648099772646 0
1.756856606547665 0.9560078743553572 0
1.553415402058453 0.9561420672712786 0
1.347457627122422 0.95627738856474 0
1.144067796613377 0.9563034567995272 0
0.04146670856173688 0.5498854761242812 0
0.9828861012149002 0.2442383967812095 0
2.465390809289578 0.2421522008426663 0
2.259572257543314 0.243586373321511 0
2.055319178697841 0.24363095694403 0
1.851066099915384 0.2436741865527954 0
1.646810778591931 0.2437170671454607 0
1.442550972205278 0.2437587738062726 0
1.238275543433999 0.2442249255777628 0
0.5808319854219957 0.2417757800606361 0
0.6039807146029165 0.2785115072887754 0
2.951522810440164 0.5995349944823752 0
0.5591131416216563 0.2791940688436214 0
0.5817690965011905 0.3180386921514113 0
0.5363223429032008 0.3181181454258206 0
0.5590799034518541 0.3577335228902347 0
2.671507320584846 0.2416532643303031 0
0.5129751095268966 0.3576683284772433 0
0.5360042291720796 0.3976917483469583 0
0.5824744072527975 0.3977458985417416 0
0.5593202208963615 0.4382323507424581 0
0.6062221806132498 0.4382172989803606 0
0.5831398502988122 0.4790536480492864 0
0.630245509211025 0.4792447281197085 0
0.5373735766893435 0.4817209888486334 0
0.2780994584865757 0.9660670791366374 0
0.9407829849899363 0.9559852449915113 0
0.6069171020766708 0.5203953730037822 0
0.6544691944766102 0.5205851219036783 0
2.724115018794794 0.9563165682871465 0
0.04341732373162228 0.2894490564426765 0
0.6304562046384772 0.5622881188475496 0
0.6786259291441818 0.5621981517123112 0
0.03938236249337418 0.7091098825652095 0
0.2999999999993055 0.04723774929726795 0
0.7024556039582556 0.5200372393771872 0
0.726826368578132 0.562505099575485 0
0.6545296629344706 0.6041261864689124 0
0.6061411599039735 0.6041581669226386 0
2.954333097254252 0.4393531299125908 0
0.7512905139641642 0.5199435586712576 0
0.7757938242112172 0.5624873891767795 0
0.4902278874550028 0.3174350849704655 0
0.4661669324669476 0.3576870257641042 0
0.8003371868304782 0.5195844107098163 0
0.8251782158071723 0.5621174250913318 0
0.6300572939290072 0.6460588488486728 0
0.581677101888915 0.6462390077748084 0
0.7994632498085218 0.6067218912904607 0
0.850068894442807 0.6047738158182728 0
0.8747482025846163 0.5617915498272615 0
0.8998102571129438 0.6045430073239006 0
0.924588798996443 0.5614360364847856 0
0.9497125983499418 0.6046345614192383 0
0.9744389394813738 0.5613114208485291 0
0.9997656958801404 0.604758732930365 0
1.024028015453996 0.5597386087889248 0
1.050046148741532 0.6042836632406788 0
1.075213347289947 0.5607219500906248 0
1.100604808237692 0.6043040651294929 0
1.125727120818654 0.5598592244124957 0
1.151165990249003 0.6040638744783449 0
1.176319565514503 0.5595216793632644 0
1.201793840633129 0.6038781229769293 0
1.226960854257978 0.5600604284234054 0
1.252470704079807 0.6038664424080111 0
1.277198987313166 0.55874807111347 0
1.303148970446812 0.6035341865995129 0
1.328130525802366 0.5586520846649797 0
1.353966012915828 0.6034054551655909 0
1.379205474149696 0.558835304845746 0
1.404820923589671 0.6032503772964327 0
1.430092956912838 0.5587079795953892 0
1.455686300628245 0.6030926920218221 0
1.480963489515269 0.5580480170404921 0
1.506562983627252 0.6028436706904448 0
1.531847734917255 0.5577680566445021 0
1.557453558526421 0.6026435181305781 0
1.582745756648754 0.5575726351194972 0
1.608358176126191 0.6024617369905624 0
1.633656322435163 0.5573842056888257 0
1.659277805706528 0.6022873884346892 0
1.684577462424181 0.5572075399874397 0
1.710203504633815 0.6021111834258887 0
1.735506494091908 0.5570246051384745 0
1.761134606493805 0.6019307913070558 0
1.786441498808711 0.5568475628142857 0
1.812072359676459 0.6017522495250318 0
1.837381834584306 0.5566653603575672 0
1.863017119880456 0.601574020443024 0
1.888326681794851 0.5564884669211013 0
1.913963858781491 0.601395113412113 0
1.939274704592935 0.5563067813822595 0
1.964908406083961 0.6012129143420911 0
1.990224566339525 0.5561292537946573 0
2.015859329864652 0.601032757987411 0
2.041177190815608 0.5559477304122714 0
2.066818109147928 0.600855564813206 0
2.09213259478423 0.5557710179709322 0
2.117774443326183 0.6006760179252703 0
2.143088896138059 0.5555900146741853 0
2.168729305797513 0.6004921726308964 0
2.194045774061603 0.5554125217101814 0
2.219686577151481 0.6003111949874665 0
2.245003702950199 0.5552312296013228 0
2.270641766736839 0.6001298880828497 0
2.295962173634055 0.5550546947866846 0
2.321601310982481 0.599950595338254 0
2.346923922781879 0.5548708301001631 0
2.372568004594504 0.5997713467128002 0
2.397895756972162 0.5547000681173012 0
2.423546697517365 0.5996004731097838 0
2.448884659670238 0.5545095609010697 0
2.474538141419978 0.5994220729206983 0
2.499902931415869 0.5543494429014709 0
2.525546234724433 0.5993228147833797 0
2.550973655834774 0.5541346321759457 0
2.576685338327378 0.5992395038842441 0
2.602182482443039 0.5540180644105763 0
2.958944511946492 0.7598964409357507 0
2.628014314012249 0.5990918128353608 0
0.4429170888396284 0.3159793431387367 0
0.4184631156771032 0.357715436029677 0
0.3946070818022522 0.3157219358498637 0
0.3697276561976696 0.3576135465858128 0
2.449044355814981 0.643990885448769 0
2.24531935830005 0.6444881680698032 0
1.024857369602972 0.6487487015028032 0
2.041498164113345 0.6452136474256573 0
1.837701628146142 0.6459229900926835 0
0.3455853078837237 0.3150377509381005 0
0.3204780172155196 0.3574251905568473 0
0.3449438693484468 0.4002519798591844 0
1.633970683060678 0.6466170330762969 0
1.227333380683899 0.6479317947648683 0
1.430444030483603 0.6473399689389928 0
0.875196942148915 0.6483605753517908 0
0.6057010339261732 0.6883083412871458 0
0.5571396249147901 0.6885103796531055 0
2.653543252321963 0.5527758280498023 0
1.099471497978971 0.5148848291986879 0
2.602427017093663 0.6438096025956825 0
2.653851606946175 0.6437140715169269 0
1.353138019780104 0.5138574114565649 0
1.556762689169365 0.5115839513085039 0
1.760509743411542 0.5109012431757174 0
1.964341412665395 0.510388685431229 0
0.2953909602266698 0.4001745965167012 0
[...]
    <PointData>
      <DataArray type="Float64" NumberOfComponents="3" Name="Velocity" format="ascii">
3.000000029762938 0 0
0 0 0
0 0 0
3.233478346706586 0 0
3.233564778842156 0 0
3.000000000010255 0 0
2.999999964056733 0 0
3.000000064507552 0 0
3.000003054551508 0 0
2.999972788214457 0 0
2.999988301675398 0 0
3.001620212176769 0 0
3.000008903344896 0 0
2.848661271724708 0 0
2.004071638499165 0 0
0.6429528392062214 0 0
0 0.07983520055545706 0
0 0.1238191178256592 0
0 0.2311147864251742 0
0 0.4010485708474516 0
1.524381374976883 0 0
2.175303683539127 0 0
2.526613273965554 0 0
2.753589711142035 0 0
2.881277875759259 0 0
2.951779622804111 0 0
2.983126236273078 0 0
2.994855990281122 0 0
2.998983798732771 0 0
3.00002324923757 0 0
3.000065644991853 0 0
3.000034828278196 0 0
3.000000074230143 0 0
2.999997311647207 0 0
2.999999727605103 0 0
3.000000194678446 0 0
3.000000036001056 0 0
2.99999997118031 0 0
3.000000006254921 0 0
2.999999999104734 0 0
3.000000000075148 0 0
3.000000000005463 0 0
2.999999999995456 0 0
3.000000000001677 0 0
2.999999999999449 0 0
2.999999999998782 0 0
3.000000000004191 0 0
2.999999999993759 0 0
3.000000000005045 0 0
2.999999999993247 0 0
3.000000000021474 0 0
2.999999999988449 0 0
2.999999999881572 0 0
3.000000000234722 0 0
3.000000000192997 0 0
2.999999998604346 0 0
3.000000004696992 0 0
2.99999999010565 0 0
2.999999935777213 0 0
3.000000415403246 0 0
3.000001629862751 0 0
2.999984348691157 0 0
2.999940266789835 0 0
3.000318841786586 0 0
3.005977828432798 0 0
3.05182825969312 0 0
3.234441332438815 0.001389726006663193 0
3.22407819711946 0.000742955598784491 0
3.225316641029378 0.0006584231363732638 0
3.225488015107688 -2.977898126148223e-05 0
3.228227749659522 -0.0003992552261099217 0
3.230226615895199 -0.0004969434210950014 0
3.22783199447121 -0.0001621242009606743 0
3.226962526328125 -0.0003559876835378265 0
3.230680982616336 5.917995078105574e-05 0
3.228787160240823 0.0001255723006184664 0
3.229802611200968 -9.965359631016814e-05 0
3.226287523945845 -0.0005036281082808193 0
3.223784389413634 -0.001575046069877847 0
3.234797328702996 -0.001180056514702821 0
3.04735158965391 0 0
3.006611225324092 0 0
3.000465161746771 0 0
2.999968250625214 0 0
2.999986030916861 0 0
3.000000601698302 0 0
3.000000441112528 0 0
2.9999999574112 0 0
2.999999989514336 0 0
3.00000000379278 0 0
2.999999998911878 0 0
3.000000000075902 0 0
3.000000000212162 0 0
2.99999999993034 0 0
2.99999999997076 0 0
3.000000000026831 0 0
2.999999999991738 0 0
2.999999999999823 0 0
3.000000000003276 0 0
2.999999999995709 0 0
3.000000000003751 0 0
2.999999999997683 0 0
3.000000000000994 0 0
2.999999999999755 0 0
2.999999999999984 0 0
3.000000000000016 0 0
3.000000000000017 0 0
3.000000000000172 0 0
2.99999999999944 0 0
3.00000000000004 0 0
3.000000000002284 0 0
2.999999999998054 0 0
2.999999999992152 0 0
3.000000000009618 0 0
3.000000000024865 0 0
2.999999999972473 0 0
2.999999999911945 0 0
3.000000000025251 0 0
3.000000000202485 0 0
3.000000000160511 0 0
2.999999999934178 0 0
2.999999999819466 0 0
2.999999999834219 0 0
2.999999999868815 0 0
3.000000000031862 0 0
3.000000000111906 0 0
2.999999999977306 0 0
2.999999999957239 0 0
3.000000000040144 0 0
3.000000000015743 0 0
2.999999999977597 0 0
3.000000000005376 0 0
3.000000000008342 0 0
2.999999999998206 0 0
2.999999999997282 0 0
3.000000000004279 0 0
2.999999999998759 0 0
3.000000000003379 0 0
3.000000000015611 0 0
2.99999999999469 0 0
2.999999999952354 0 0
3.000000000091879 0 0
3.000000000040876 0 0
3.000000000054208 0 0
3.000000000033574 0 0
3.00000000044562 0 0
3.00000000119278 0 0
2.999999999040891 0 0
2.999999996112728 0 0
2.999999995746026 0 0
3.000000000562665 0 0
3.000000008826099 0 0
3.000000021573459 0 0
3.00000001496421 0 0
2.999999997476236 0 0
2.99999999048671 0 0
3.000000000028306 9.121783792250544e-11 0
1.541764353471362 0.465513724465295 0
3.000000000055526 1.511813092679781e-09 0
2.999999962656651 -1.982323819040046e-09 0
2.999999999687436 -2.508268665515965e-11 0
2.999999999986977 5.822517520453099e-13 0
2.999999999998212 -3.204526297353424e-13 0
3.000000000000425 -2.23462431505342e-13 0
2.999999999999802 9.504875992030759e-14 0
3.000000000008552 1.065352591505688e-12 0
3.000000000105496 5.235357644764427e-11 0
2.999999999518888 1.738652473057212e-10 0
2.991880612624291 0.003383260855416684 0
2.999999999573297 1.986998269177318e-10 0
3.000000000080412 -3.690359496823907e-12 0
3.000000000004185 -8.12464228097674e-13 0
2.99999999999619 4.432589803582149e-13 0
2.999999999273361 2.071469693900379e-11 0
3.00000013888469 -3.530994903821345e-09 0
3.000011752014442 -8.09579441227137e-07 0
1.633933032102931 0.5750443497471299 0
2.194210241813783 0.5135710440524978 0
3.064504772850908 -0.0002049472576116443 0
2.369599093893077 0.3677654064304663 0
2.642107640138316 0.286155301832959 0
2.80103150432531 0.1349906306248298 0
2.893614894318777 0.0942224833003424 0
3.00000123795273 -8.429670438607791e-08 0
2.96095752342083 0.03014643498429138 0
2.979896260702819 0.01962541456075419 0
2.951935297858356 0.05352644309471902 0
2.991415220066187 0.01037553825222908 0
2.981211917227658 0.02575867295725381 0
2.996950501372306 0.004547134890939329 0
2.993778144927535 0.01044511930129321 0
2.999164249272482 0.001218724003434035 0
3.000000000000831 -9.342475089849068e-12 0
2.999999999650773 5.776116149097515e-10 0
2.999160928411321 0.001569758715391044 0
2.998315279151939 0.003463466457480722 0
2.999995563813676 5.311760745121587e-07 0
3.000000002931287 -1.877619453670227e-10 0
2.999848463850198 0.0003737584701498922 0
2.999652373333478 0.0008621782171497603 0
3.000000000046296 5.316101780615809e-11 0
3.000265313833846 -2.477036334087297e-05 0
2.99742788976424 0.006543456891863591 0
2.999466124456779 0.001668806276688413 0
2.999991371580224 4.004871750559787e-05 0
3.000006084671878 1.85165770186354e-06 0
3.075359542595927 -0.0002768865854563092 0
2.997835682547192 0.007994386373362441 0
2.999617816761053 0.001866564084213464 0
2.939532504393647 0.03601864726747564 0
2.992358389992879 0.005645540772269729 0
2.999028597445982 0.006744406189332802 0
2.999874214131247 0.001414647819526711 0
3.000006278154337 -1.268164532606039e-05 0
3.00000343139373 -7.233802947639954e-06 0
2.999947418972269 0.0002554680430114337 0
2.999976153910742 0.0001666716621276381 0
3.000018292911586 0.0008222016871479769 0
2.999987974188826 7.039664838502425e-05 0
3.000046993666206 0.0003496932223903695 0
2.999990707352825 1.291178593429515e-05 0
3.000017220227764 8.098026012237885e-05 0
2.999990577006019 -9.271431595290084e-06 0
2.999992353443668 -5.70529146005453e-06 0
2.999993275710141 -8.061371659099226e-06 0
2.999986337412403 -1.423886020835617e-05 0
2.999997795813272 -1.892802654731335e-06 0
2.999992773253652 -4.32146575336547e-06 0
3.000000350122316 4.14928101515542e-07 0
2.999998837738372 3.807495087040037e-07 0
3.000000710035941 3.323306647874872e-07 0
3.000000728715644 4.865908509246488e-07 0
3.000000250078299 -5.400963911332064e-10 0
3.000000378183797 -4.649663065525976e-08 0
2.99999995158247 -4.343888777280911e-08 0
2.999999975387761 -6.579301110065316e-08 0
2.999999962147825 1.357347320730142e-08 0
2.999999956616058 1.934497785037598e-08 0
3.000000010931308 9.392486712599809e-10 0
2.99999999927292 5.400579262966044e-09 0
3.000000002508378 -2.983014751492525e-09 0
3.000000005090166 -3.9351064007096e-09 0
2.999999998377174 9.742998596552839e-10 0
2.999999998915609 7.329877729177001e-10 0
3.000000000160868 -4.027544697360114e-11 0
2.99999999990756 3.707085792893363e-11 0
3.000000000100131 -7.035896496910584e-11 0
3.000000000119816 -6.313874740982956e-11 0
2.999999999947559 3.429693043051005e-11 0
2.999999999956095 2.499510917304066e-11 0
3.000000000013634 -1.043741541558897e-11 0
3.000000000011283 -7.421996375189037e-12 0
2.999999999998112 2.482956304049399e-12 0
2.999999999997569 1.990476440768311e-12 0
2.999999999999833 -4.885802220748413e-13 0
3.000000000000742 -5.231065164253076e-13 0
2.999999999999743 6.405992134311013e-14 0
2.999999999999643 7.500501899342485e-14 0
3.000000000001581 4.001359505555716e-14 0
2.99999999999919 1.940412151773194e-13 0
2.999999999997155 -2.785988317103192e-14 0
3.000000000003407 -4.66641882230939e-13 0
3.00000000000229 -2.011792034563968e-13 0
2.999999999993583 6.823130138962918e-13 0
3.000000000001446 5.880724344017517e-13 0
3.000000000008151 -6.769195604604602e-13 0
2.99999999999201 -6.33346793956115e-13 0
2.999999999991207 3.204475051163745e-13 0
3.000000000019033 -2.255859737917423e-13 0
3.000000000004607 2.941805888800921e-13 0
2.999999999962281 1.506930847595234e-12 0
3.000000000030133 -9.091597520825785e-13 0
3.000000000024369 -1.86797900289223e-12 0
2.9999999999082 1.615232541586576e-12 0
3.000000000121271 1.07096241233328e-12 0
2.999999999966521 -2.76309314525063e-12 0
2.999999999763906 1.568102689444882e-12 0
3.000000000536554 -5.904395717142412e-13 0
2.999999999675084 -5.454049647287711e-12 0
2.999999999038257 2.674943557107892e-11 0
3.000000001905698 7.524706431447827e-12 0
3.000000003001851 -1.417101621356864e-10 0
2.999999994803404 -8.115423807172361e-11 0
2.999999974871998 7.055644120333843e-10 0
2.999999980049819 1.06150866259292e-09 0
3.000000054843689 2.510948803357222e-09 0
3.084998779129904 4.608637471815262e-05 0
3.000000306372983 -2.266738882908187e-09 0
2.990495365973154 0.005554522845604162 0
2.999505271009896 0.0004946616949059804 0
3.000157556792714 7.184446883427659e-05 0
3.000165359600762 -7.024114594113165e-05 0
2.999999999027059 -2.174753882037221e-11 0
3.000000000029992 7.788378628155117e-13 0
2.999998235593556 -3.363075249982889e-06 0
2.999999999992395 -1.162977274890476e-12 0
3.000000000001203 -5.710941818912401e-14 0
3.000179807284712 -6.720139390192091e-05 0
3.000009804633391 -7.277723271819952e-06 0
3.000020074464771 -1.351111197514949e-05 0
2.999999999960181 3.023814734513081e-11 0
3.000000055482011 -1.616279318936327e-09 0
2.999999998665924 -9.267614768972108e-10 0
2.999991768609176 -7.542220313991328e-06 0
3.000000542155139 -1.961122353790263e-06 0
2.999999918299293 -3.23470199455937e-07 0
3.000000541969998 -2.812219958119483e-08 0
2.999985796931262 -1.922818141331506e-05 0
3.000000056488445 -1.90348638749439e-09 0
3.000000505029035 7.171388450024135e-09 0
3.000000022890231 -7.608270615110971e-08 0
2.999999999278382 6.226958314712263e-10 0
3.0000000000092 -3.054957588747356e-12 0
2.999999999997733 5.281938294314497e-13 0
2.999997003379506 1.014900432718701e-06 0
2.999999801913316 -8.057530484584076e-07 0
3.000000000013821 -1.616761423968719e-12 0
2.999999999773193 1.118076196284666e-12 0
2.999999974018195 1.2230120266893e-09 0
2.994419414243351 0.02337200001565442 0
3.000287440141927 0.0009230446204860808 0
3.000000302730758 -3.244470594273096e-09 0
2.999999958489258 4.441162317552433e-08 0
2.999999854951278 2.590018309140887e-07 0
2.999999872214371 1.836377345869133e-07 0
2.99999991764525 1.798747048630251e-07 0
2.999999772631496 2.279645463136521e-07 0
2.999999996566927 4.015423712959287e-08 0
2.999999908044614 1.609536285030848e-07 0
3.000000013857148 -9.576295139118556e-09 0
3.000000018074533 9.253981850616057e-09 0
3.000000004203707 -9.24082386492804e-09 0
3.000000013882654 -1.465637752616997e-08 0
2.999999997975752 6.742935251687474e-10 0
3.000000000379644 -3.975391502444182e-09 0
0.4640224904551341 0.2647662378459013 0
2.992033288902964 0.003541593561880945 0
2.999999999935993 1.128040079851489e-09 0
2.999990610963502 6.467202513445476e-07 0
3.00006424467941 4.408138700069911e-05 0
2.999999425826893 2.957585862960423e-07 0
2.853068165212498 0.06361399658846775 0
2.999999997943414 2.43347804678379e-09 0
3.000000554247917 -5.237479002028934e-09 0
3.000000042468673 -1.536423752155072e-09 0
2.999997704432499 6.030186261839466e-08 0
2.999989523503019 3.775785937829815e-07 0
2.436145536867263 0.1788742422922214 0
2.999999993348316 4.050174662525409e-08 0
2.999997796277533 3.654431799269279e-07 0
3.000000000806056 -4.072468285329297e-10 0
2.999999993472482 1.3042499275844e-09 0
3.000115226086569 -3.240041919833766e-05 0
2.999984265010829 2.83678036678406e-06 0
3.00000000002047 4.851560309959419e-13 0
2.999999999662308 1.430595198214271e-09 0
2.999999999984944 1.246399181621436e-12 0
3.000000000000667 -3.974198716915122e-13 0
2.999999999997511 2.680072617883876e-12 0
3.000000000505478 -1.818787039276328e-10 0
3.000000000002932 -8.838645169063064e-13 0
2.999999999998243 -1.75579220623055e-13 0
2.999999999589285 3.020827250963481e-11 0
2.999999997776636 -2.46168989601737e-10 0
2.999999999952462 1.137747069367152e-12 0
2.999847932515995 9.667070618928141e-06 0
2.999998932626212 9.25140066402314e-08 0
2.999999978407923 5.138959455536036e-09 0
2.999999999991353 3.551019282016216e-13 0
2.999999999998918 -2.534256422136958e-13 0
2.999999999672123 -1.031852957756962e-10 0
2.99999999985247 -2.563212085981381e-10 0
2.999999999965036 -1.01446044882157e-11 0
3.000000000063455 4.59938707832943e-12 0
3.000000000000143 -2.906023319186983e-14 0
3.000000000000995 -6.233967538731977e-13 0
2.999999999998779 -5.97639746189862e-12 0
3.000000568464801 3.445227536130508e-07 0
3.000000000001182 -7.116161563276606e-13 0
3.000000000000111 2.291922668858553e-14 0
3.000000000075574 -1.847173641900419e-11 0
2.999999991761437 7.191131236302079e-09 0
2.99999999997236 -2.433130241507942e-12 0
3.000000000022563 -1.287691440686397e-12 0
2.999997369200061 1.004541836900698e-06 0
2.999999956808185 1.502660589601217e-09 0
2.999999982623641 7.011870400470099e-08 0
3.000127389322368 -2.937465793914971e-05 0
2.977816253145534 -0.0001713634056484395 0
3.000000002045639 1.982533402434065e-12 0
2.999999742799368 1.770254883506619e-07 0
2.999999998652703 2.161616986456953e-09 0
2.921961693588579 0.1021145650122984 0
3.000000039727981 -1.273339655035802e-08 0
3.000000000322788 -6.927839495844861e-10 0
3.000000006314341 -9.474863713829305e-09 0
2.999999996603553 1.94026956163276e-09 0
2.99998113834989 3.196890649764931e-07 0
3.000000285691666 -7.450486664944618e-09 0
2.999999975334839 1.051928087424015e-09 0
3.000000006116776 -1.022133563150902e-08 0
3.000000000142564 -3.215872906378317e-10 0
2.99999977590477 -1.262717635236767e-07 0
2.999990727932043 -4.780401566089274e-07 0
2.999999999749802 -2.477768075703193e-11 0
3.00001757045932 -1.197867153769988e-05 0
3.000015160751395 -6.067638689926282e-06 0
2.999986682724554 2.833158312733366e-06 0
2.999998263596653 7.167913592963338e-07 0
2.999990282065848 -9.843787516625641e-09 0
2.999991681095857 4.244822865924961e-08 0
3.075660049363564 0.001046175178715608 0
3.06051146003007 -0.001037770824452936 0
2.99999993649891 -1.080648919176263e-06 0
3.00000000006556 8.21053307587529e-11 0
2.998323650196787 0.01694113286968962 0
2.98913875846687 0.04844115412636244 0
2.997784309290315 0.03025654735226028 0
2.999979048071078 3.613674967465054e-07 0
3.000006998733297 -1.776493872136137e-05 0
2.123570524734003 0.365856199705493 0
3.0000118425085 -1.098392852640418e-05 0
3.000000052752814 -2.839800333223685e-08 0
3.000000017761945 -5.239045791789492e-09 0
3.00000002083881 -7.396659250995659e-09 0
3.000000453235516 5.470023637942215e-08 0
3.000000000055341 -9.504911684334374e-11 0
2.982133086379923 0.07119271481689141 0
2.995540196808193 0.04126212265605133 0
2.95666307558573 0.1094489244273374 0
3.000118202257814 -5.671243467145958e-06 0
2.999993661836151 1.010441451375402e-06 0
2.999999999990087 2.509809972839222e-11 0
2.999999999818269 2.849644666822177e-10 0
3.00000003861085 -2.121393293085274e-09 0
2.99999997949232 7.749080014160531e-10 0
2.999999995641682 1.591446153483425e-10 0
3.000000003184311 -8.850274025167232e-11 0
3.00000000174588 -6.335555012699158e-11 0
2.999999998844581 2.504653943416284e-11 0
2.99999999980613 1.392001119108125e-12 0
3.000000000475891 2.762299018581505e-12 0
2.999999999716643 -1.002175469218291e-11 0
3.000000000030337 1.489890751879799e-11 0
3.000000000107353 2.891435193562903e-12 0
2.999999999911272 -1.08393153406286e-11 0
3.000000000039284 3.341466033765425e-12 0
3.000000000008879 -3.593383228588075e-12 0
2.99999999995964 1.579144593594173e-13 0
3.000000000023139 5.358342545255802e-12 0
3.000000000011432 -1.850135878193101e-12 0
2.999999999978382 -1.839032840995361e-12 0
3.000000000005409 1.123752176554564e-12 0
3.00000000001293 2.177289436369735e-13 0
2.999999999988597 -9.419943980404324e-13 0
2.999999999995512 9.675444335862189e-14 0
3.000000000010449 1.133440577035853e-12 0
2.999999999999201 -4.716587973715417e-13 0
2.999999999993717 -7.946748087482061e-13 0
3.000000000002267 7.627110239353847e-13 0
3.00000000000241 1.372171062219549e-13 0
2.999999999998447 -7.025466209213337e-13 0
2.999999999999669 2.873317552614254e-13 0
3.000000000000508 4.167509973126326e-13 0
2.999999999999768 -3.474601935500044e-13 0
3.000000000000175 -1.713383394119439e-13 0
2.999999999999761 3.495094623253543e-13 0
2.999999999999315 1.255675094685379e-13 0
3.000000000001471 -6.400528763907863e-13 0
3.000000000000579 -1.055817903528525e-13 0
2.999999999999504 7.837122221846031e-13 0
3.000000000002344 -3.423891020427992e-13 0
2.999999999988172 1.04902859262151e-12 0
2.999999999989764 1.237837765130668e-12 0
3.000000000041922 -5.188707877791668e-12 0
3.000000000019336 -1.759472018229854e-12 0
2.999999999928544 7.760463339764485e-12 0
2.999999999998537 7.450827672072301e-13 0
3.000000000004857 -1.136393916970924e-11 0
2.999999999890922 2.786479038881167e-12 0
3.000000000433392 1.162404433202831e-11 0
3.0000000002161 1.591319119390241e-11 0
2.999999999043887 -8.07423757504177e-11 0
3.000000000205874 -1.664956836177356e-11 0
2.999999999097625 -2.161941031110261e-11 0
2.999999998926095 -1.664432115916201e-10 0
3.000000004775721 1.180011558209788e-09 0
2.999999999689372 3.551556950449302e-10 0
3.000000004229511 -2.644894954954569e-10 0
3.000000004086507 1.343473662336891e-09 0
2.999999987643383 -8.442819761468184e-09 0
3.000000003703799 -1.407193000926247e-09 0
2.999999968430508 -1.24290188786416e-08 0
2.999999994017049 -8.874017233376405e-09 0
2.999999971879165 1.383704052088482e-08 0
2.999999978760964 -1.498137226131255e-08 0
3.000000012211074 8.80850203208106e-08 0
2.999999970260626 -4.626643142610439e-09 0
3.000000078750374 1.979650943620645e-07 0
2.999999977043069 3.384653047944969e-08 0
3.000000140518787 3.059814525078144e-07 0
2.999999992330216 9.973102682395648e-08 0
3.000000128979729 3.031334290160298e-07 0
2.999999991053495 1.44824689497943e-07 0
3.000000099854901 2.148373332643438e-07 0
2.999999973601094 1.462855047052754e-07 0
2.999980999625448 -2.617866887193496e-07 0
3.000098073005105 -2.912061978678766e-06 0
3.000000015679989 -1.516517058384883e-08 0
2.999999996605165 -9.070849764512331e-11 0
2.999963407614898 4.994478469451784e-06 0
3.000411792163298 -7.163568003397103e-05 0
3.000529307678266 -1.271708017917953e-05 0
3.000000006018464 3.49066665682155e-07 0
2.999999969673456 1.010809248929762e-07 0
3.000000582963036 -2.12184791682549e-06 0
3.000000515156755 -1.325120954589943e-07 0
3.000674059126325 1.164617934970654e-06 0
3.000098473712666 4.857977462030874e-06 0
3.002109913867717 3.576130874481677e-05 0
3.000521037753933 -1.919399536735745e-05 0
2.999987448645137 -2.345480185588991e-07 0
3.000094382565639 -1.11466316146915e-05 0
2.99997792665844 4.274582179568499e-07 0
2.999991690681172 -1.406218705102343e-09 0
2.999986935160488 7.555819021656438e-07 0
2.999969662851403 2.587109990373506e-07 0
2.999996472234387 -1.394543994857244e-07 0
3.000104790036837 -1.767077142985231e-06 0
2.999999917810642 6.55384689420826e-08 0
3.000000551817115 1.688211707881068e-09 0
2.999999197795451 -2.928046882718792e-07 0
3.000004918641019 -6.903547015864353e-06 0
3.000000000810399 -1.213983712462995e-09 0
2.99999998964648 -9.113676865264634e-09 0
2.999999793596147 5.157891118875028e-09 0
3.000000000008268 1.01028586856866e-11 0
1.181177855834572 0.02739335236868148 0
3.000000347035384 1.117380273536266e-09 0
3.000000056393467 5.639208196145025e-09 0
2.999999974123186 -1.558103951761018e-09 0
2.999999975343902 -7.563266882131376e-10 0