<?xml version="1.0"?>
<VTKFile type="UnstructuredGrid">
  <UnstructuredGrid>
  <Piece NumberOfPoints="1224"  NumberOfCells="2290">
    <Points>
      <DataArray type="Float64" NumberOfComponents="3" format="ascii">
0 0 0
0.6 0 0
0.6 0.2 0
3 0.2 0
3 1 0
0 1 0
0.05454545454535233 0 0
0.1090909090906768 0 0
0.1636363636359771 0 0
0.2181818181812728 0 0
0.2727272727265793 0 0
0.3272727272720317 0 0
0.3818181818176247 0 0
0.4363636363632168 0 0
0.4909090909088285 0 0
0.5454545454544089 0 0
0.6 0.03999999999991203 0
0.6 0.07999999999979179 0
0.6 0.1199999999997886 0
0.6 0.1599999999998948 0
0.6510638297871261 0.2 0
0.7021276595742618 0.2 0
0.7531914893613819 0.2 0
0.8042553191485237 0.2 0
0.8553191489356438 0.2 0
0.9063829787228289 0.2 0
0.957446808509926 0.2 0
1.008510638297009 0.2 0
1.059574468084092 0.2 0
1.110638297871174 0.2 0
1.161702127658257 0.2 0
1.21276595744534 0.2 0
1.263829787232422 0.2 0
1.314893617019505 0.2 0
1.365957446806588 0.2 0
1.417021276593671 0.2 0
1.468085106380754 0.2 0
1.519148936167923 0.2 0
1.570212765955006 0.2 0
1.621276595742088 0.2 0
1.672340425529171 0.2 0
1.723404255316254 0.2 0
1.774468085103337 0.2 0
1.825531914890624 0.2 0
1.876595744677951 0.2 0
1.927659574465349 0.2 0
1.978723404252714 0.2 0
2.029787234040074 0.2 0
2.080851063827477 0.2 0
2.131914893614798 0.2 0
2.182978723402204 0.2 0
2.234042553189523 0.2 0
2.285106382976928 0.2 0
2.336170212764247 0.2 0
2.387234042551653 0.2 0
2.438297872338975 0.2 0
2.489361702126377 0.2 0
2.540425531913739 0.2 0
2.591489361701102 0.2 0
2.642553191488421 0.2 0
2.693617021275827 0.2 0
2.744680851063146 0.2 0
2.795744680850551 0.2 0
2.84680851063787 0.2 0
2.897872340425276 0.2 0
2.948936170212618 0.2 0
3 0.2533333333332341 0
3 0.3066666666664725 0
3 0.3599999999996274 0
3 0.413333333332804 0
3 0.4666666666659806 0
3 0.5199999999991571 0
3 0.5733333333323336 0
3 0.6266666666656895 0
3 0.6799999999991551 0
3 0.7333333333326146 0
3 0.7866666666660802 0
3 0.8399999999995775 0
3 0.8933333333330373 0
3 0.9466666666664969 0
2.949152542373491 1 0
2.898305084746983 1 0
2.847457627120474 1 0
2.796610169493702 1 0
2.745762711866469 1 0
2.694915254239208 1 0
2.644067796611963 1 0
2.593220338985156 1 0
2.542372881358647 1 0
2.491525423732018 1 0
2.44067796610481 1 0
2.389830508477549 1 0
2.338983050850287 1 0
2.288135593223026 1 0
2.237288135595765 1 0
2.186440677968504 1 0
2.135593220341243 1 0
2.084745762713982 1 0
2.033898305086721 1 0
1.983050847459614 1 0
1.932203389832729 1 0
1.881355932205844 1 0
1.830508474578958 1 0
1.779661016952073 1 0
1.728813559325189 1 0
1.677966101698303 1 0
1.627118644071418 1 0
1.576271186444533 1 0
1.525423728817648 1 0
1.474576271190575 1 0
1.423728813563314 1 0
1.372881355936053 1 0
1.322033898308791 1 0
1.27118644068153 1 0
1.220338983054269 1 0
1.169491525427008 1 0
1.118644067799747 1 0
1.067796610172485 1 0
1.016949152545224 1 0
0.9661016949179628 1 0
0.9152542372907018 1 0
0.8644067796634407 1 0
0.8135593220361792 1 0
0.7627118644089181 1 0
0.7118644067816566 1 0
0.661016949154396 1 0
0.6101694915271345 1 0
0.5593220338998739 1 0
0.5084745762726124 1 0
0.4576271186453518 1 0
0.4067796610180903 1 0
0.3559322033908292 1 0
0.3050847457635677 1 0
0.2542372881363066 1 0
0.2033898305090456 1 0
0.1525423728817841 1 0
0.101694915254523 1 0
0.05084745762726151 1 0
0 0.9473684210524125 0
0 0.8947368421048248 0
0 0.8421052631576025 0
0 0.7894736842105994 0
0 0.7368421052635962 0
0 0.6842105263165927 0
0 0.6315789473695894 0
0 0.5789473684225861 0
0 0.5263157894755828 0
0 0.4736842105282874 0
0 0.4210526315806998 0
0 0.3684210526331123 0
0 0.3157894736855248 0
0 0.2631578947379374 0
0 0.21052631579035 0
0 0.1578947368427625 0
0 0.1052631578951749 0
0 0.05263157894758741 0
0.4374856279758046 0.955462795473483 0
0.625531914893563 0.2394317949808221 0
0.7891616249544176 0.9557759867023439 0
2.570562443351098 0.9559758769411787 0
2.364406779663917 0.9559648099769389 0
2.161016949154874 0.9559648099769389 0
1.957627118646171 0.9559648099772646 0
1.756856606547665 0.9560078743553572 0
1.553415402058453 0.9561420672712786 0
1.347457627122422 0.95627738856474 0
1.144067796613377 0.9563034567995272 0
0.04146670856173688 0.5498854761242812 0
0.9828861012149002 0.2442383967812095 0
2.465390809289578 0.2421522008426663 0
2.259572257543314 0.243586373321511 0
2.055319178697841 0.24363095694403 0
1.851066099915384 0.2436741865527954 0
1.646810778591931 0.2437170671454607 0
1.442550972205278 0.2437587738062726 0
1.238275543433999 0.2442249255777628 0
0.5808319854219957 0.2417757800606361 0
0.6039807146029165 0.2785115072887754 0
2.951522810440164 0.5995349944823752 0
0.5591131416216563 0.2791940688436214 0
0.5817690965011905 0.3180386921514113 0
0.5363223429032008 0.3181181454258206 0
0.5590799034518541 0.3577335228902347 0
2.671507320584846 0.2416532643303031 0
0.5129751095268966 0.3576683284772433 0
0.5360042291720796 0.3976917483469583 0
0.5824744072527975 0.3977458985417416 0
0.5593202208963615 0.4382323507424581 0
0.6062221806132498 0.4382172989803606 0
0.5831398502988122 0.4790536480492864 0
0.630245509211025 0.4792447281197085 0
0.5373735766893435 0.4817209888486334 0
0.2780994584865757 0.9660670791366374 0
0.9407829849899363 0.9559852449915113 0
0.6069171020766708 0.5203953730037822 0
0.6544691944766102 0.5205851219036783 0
2.724115018794794 0.9563165682871465 0
0.04341732373162228 0.2894490564426765 0
0.6304562046384772 0.5622881188475496 0
0.6786259291441818 0.5621981517123112 0
0.03938236249337418 0.7091098825652095 0
0.2999999999993055 0.04723774929726795 0
0.7024556039582556 0.5200372393771872 0
0.726826368578132 0.562505099575485 0
0.6545296629344706 0.6041261864689124 0
0.6061411599039735 0.6041581669226386 0
2.954333097254252 0.4393531299125908 0
0.7512905139641642 0.5199435586712576 0
0.7757938242112172 0.5624873891767795 0
0.4902278874550028 0.3174350849704655 0
0.4661669324669476 0.3576870257641042 0
0.8003371868304782 0.5195844107098163 0
0.8251782158071723 0.5621174250913318 0
0.6300572939290072 0.6460588488486728 0
0.581677101888915 0.6462390077748084 0
0.7994632498085218 0.6067218912904607 0
0.850068894442807 0.6047738158182728 0
0.8747482025846163 0.5617915498272615 0
0.8998102571129438 0.6045430073239006 0
0.924588798996443 0.5614360364847856 0
0.9497125983499418 0.6046345614192383 0
0.9744389394813738 0.5613114208485291 0
0.9997656958801404 0.604758732930365 0
1.024028015453996 0.5597386087889248 0
1.050046148741532 0.6042836632406788 0
1.075213347289947 0.5607219500906248 0
1.100604808237692 0.6043040651294929 0
1.125727120818654 0.5598592244124957 0
1.151165990249003 0.6040638744783449 0
1.176319565514503 0.5595216793632644 0
1.201793840633129 0.6038781229769293 0
1.226960854257978 0.5600604284234054 0
1.252470704079807 0.6038664424080111 0
1.277198987313166 0.55874807111347 0
1.303148970446812 0.6035341865995129 0
1.328130525802366 0.5586520846649797 0
1.353966012915828 0.6034054551655909 0
1.379205474149696 0.558835304845746 0
1.404820923589671 0.6032503772964327 0
1.430092956912838 0.5587079795953892 0
1.455686300628245 0.6030926920218221 0
1.480963489515269 0.5580480170404921 0
1.506562983627252 0.6028436706904448 0
1.531847734917255 0.5577680566445021 0
1.557453558526421 0.6026435181305781 0
1.582745756648754 0.5575726351194972 0
1.608358176126191 0.6024617369905624 0
1.633656322435163 0.5573842056888257 0
1.659277805706528 0.6022873884346892 0
1.684577462424181 0.5572075399874397 0
1.710203504633815 0.6021111834258887 0
1.735506494091908 0.5570246051384745 0
1.761134606493805 0.6019307913070558 0
1.786441498808711 0.5568475628142857 0
1.812072359676459 0.6017522495250318 0
1.837381834584306 0.5566653603575672 0
1.863017119880456 0.601574020443024 0
1.888326681794851 0.5564884669211013 0
1.913963858781491 0.601395113412113 0
1.939274704592935 0.5563067813822595 0
1.964908406083961 0.6012129143420911 0
1.990224566339525 0.5561292537946573 0
2.015859329864652 0.601032757987411 0
2.041177190815608 0.5559477304122714 0
2.066818109147928 0.600855564813206 0
2.09213259478423 0.5557710179709322 0
2.117774443326183 0.6006760179252703 0
2.143088896138059 0.5555900146741853 0
2.168729305797513 0.6004921726308964 0
2.194045774061603 0.5554125217101814 0
2.219686577151481 0.6003111949874665 0
2.245003702950199 0.5552312296013228 0
2.270641766736839 0.6001298880828497 0
2.295962173634055 0.5550546947866846 0
2.321601310982481 0.599950595338254 0
2.346923922781879 0.5548708301001631 0
2.372568004594504 0.5997713467128002 0
2.397895756972162 0.5547000681173012 0
2.423546697517365 0.5996004731097838 0
2.448884659670238 0.5545095609010697 0
2.474538141419978 0.5994220729206983 0
2.499902931415869 0.5543494429014709 0
2.525546234724433 0.5993228147833797 0
2.550973655834774 0.5541346321759457 0
2.576685338327378 0.5992395038842441 0
2.602182482443039 0.5540180644105763 0
2.958944511946492 0.7598964409357507 0
2.628014314012249 0.5990918128353608 0
0.4429170888396284 0.3159793431387367 0
0.4184631156771032 0.357715436029677 0
0.3946070818022522 0.3157219358498637 0
0.3697276561976696 0.3576135465858128 0
2.449044355814981 0.643990885448769 0
2.24531935830005 0.6444881680698032 0
1.024857369602972 0.6487487015028032 0
2.041498164113345 0.6452136474256573 0
1.837701628146142 0.6459229900926835 0
0.3455853078837237 0.3150377509381005 0
0.3204780172155196 0.3574251905568473 0
0.3449438693484468 0.4002519798591844 0
1.633970683060678 0.6466170330762969 0
1.227333380683899 0.6479317947648683 0
1.430444030483603 0.6473399689389928 0
0.875196942148915 0.6483605753517908 0
0.6057010339261732 0.6883083412871458 0
0.5571396249147901 0.6885103796531055 0
2.653543252321963 0.5527758280498023 0
1.099471497978971 0.5148848291986879 0
2.602427017093663 0.6438096025956825 0
2.653851606946175 0.6437140715169269 0
1.353138019780104 0.5138574114565649 0
1.556762689169365 0.5115839513085039 0
1.760509743411542 0.5109012431757174 0
1.964341412665395 0.510388685431229 0
0.2953909602266698 0.4001745965167012 0
[...]
    <PointData>
      <DataArray type="Float64" NumberOfComponents="3" Name="Velocity" format="ascii">
3.00000008926463 0 0
0 0 0
0 0 0
3.240247850436616 0 0
3.240043499011202 0 0
3.000000000159528 0 0
3.000000049829823 0 0
2.999998351428466 0 0
3.000001562666254 0 0
3.000111637850549 0 0
3.000211331308307 0 0
2.986758604089931 0 0
2.811488232700426 0 0
2.074848957297184 0 0
0.9488238340059024 0 0
0.2187859104677037 0 0
0 0.127883487578969 0
0 0.2324335634350194 0
0 0.36468703947435 0
0 0.5253127689407602 0
1.400965932441104 0 0
1.957399856388428 0 0
2.263741171501003 0 0
2.487767914938445 0 0
2.64566522302549 0 0
2.775182680728664 0 0
2.8609094312911 0 0
2.917814925866991 0 0
2.953642924859393 0 0
2.974586810478732 0 0
2.986991757131905 0 0
2.994188345277431 0 0
2.997255666078963 0 0
2.998909698220093 0 0
2.999604324818225 0 0
2.999879275272429 0 0
2.999978502433881 0 0
2.999999768631316 0 0
3.000002186745247 0 0
3.000000803679854 0 0
2.999999997004937 0 0
2.99999993410553 0 0
2.999999985159025 0 0
3.000000005850875 0 0
2.99999999980699 0 0
2.99999999985869 0 0
3.000000000064369 0 0
2.99999999995905 0 0
3.000000000029693 0 0
3.000000000014052 0 0
2.999999999947696 0 0
2.999999999961019 0 0
3.000000000203614 0 0
2.999999999923141 0 0
2.999999999582751 0 0
3.000000000926457 0 0
2.999999997968521 0 0
3.000000012465819 0 0
3.000000007786058 0 0
2.999999563736784 0 0
2.999997806758018 0 0
3.000006222921427 0 0
3.00015567470126 0 0
3.001273163366029 0 0
3.00866093257314 0 0
3.057417778906078 0 0
3.24117458127242 0.001724859901097525 0
3.23102993821126 0.001165984402150549 0
3.232509086447183 0.0009678144730988435 0
3.232827405857733 8.574842389347424e-05 0
3.235718989297571 -0.0004614219728818135 0
3.237615324952814 -0.0006772456508376581 0
3.235087738305428 -0.0003482118256538672 0
3.234078622764821 -0.0004761190693135441 0
3.237751225416549 -4.420756456943559e-05 0
3.235815781398068 -1.303668529441758e-05 0
3.236622159347258 -0.000293189126244594 0
3.233015717477417 -0.0007538149490696912 0
3.230239019130263 -0.001817477551795661 0
3.241108066812999 -0.001339341471929168 0
3.052713534633374 0 0
3.009248812506791 0 0
3.001355862844187 0 0
3.000161764509018 0 0
3.000011067910357 0 0
2.999998997281285 0 0
2.999999515909864 0 0
2.999999984845076 0 0
3.000000011291395 0 0
2.999999998622575 0 0
3.000000000786121 0 0
2.999999999591225 0 0
2.999999999943379 0 0
3.000000000179006 0 0
2.999999999963437 0 0
2.999999999959587 0 0
3.000000000013764 0 0
3.000000000008681 0 0
2.999999999997559 0 0
2.999999999996187 0 0
2.999999999998437 0 0
3.000000000009971 0 0
2.999999999987521 0 0
3.000000000009869 0 0
2.999999999986741 0 0
3.000000000022429 0 0
3.000000000002807 0 0
2.999999999906277 0 0
3.000000000067169 0 0
3.000000000430439 0 0
2.999999999607034 0 0
2.999999997999476 0 0
2.999999999126971 0 0
3.000000005766628 0 0
3.000000014665133 0 0
3.000000018496839 0 0
3.000000018642842 0 0
3.00000001370994 0 0
3.000000012495972 0 0
3.000000033065288 0 0
3.000000059023288 0 0
3.00000006609657 0 0
3.000000042464312 0 0
3.00000001738051 0 0
3.000000001819054 0 0
2.999999996371181 0 0
2.999999997306463 0 0
2.999999999733845 0 0
3.000000000633286 0 0
2.999999999873392 0 0
2.999999999928276 0 0
3.000000000103337 0 0
2.999999999940249 0 0
3.000000000045076 0 0
2.999999999993529 0 0
3.000000000042117 0 0
3.000000000131117 0 0
3.000000000149842 0 0
2.999999999912523 0 0
3.000000000136137 0 0
2.999999999546877 0 0
3.00000000022334 0 0
2.99999999983722 0 0
3.000000000289833 0 0
3.000000000974203 0 0
3.000000002705392 0 0
3.000000000693206 0 0
2.99999999676433 0 0
2.999999993295292 0 0
2.999999993970926 0 0
2.999999999613387 0 0
3.000000014713003 0 0
3.000000049642069 0 0
3.000000076959219 0 0
3.000000056711623 0 0
3.000000037081205 0 0
3.000000000497663 -8.080327620210768e-10 0
1.3504730242151 0.5799133211299293 0
3.000000076395003 -2.49279401213135e-07 0
3.000000007356988 3.148814678634893e-09 0
3.000000000290058 1.638039788592019e-11 0
3.000000000010481 -6.108239091506352e-12 0
3.000000000011515 -1.134839404544329e-12 0
3.000000000000148 5.940280645088914e-12 0
3.000000000216806 7.149184829013455e-11 0
3.000000004807299 5.492092265541879e-09 0
2.999999983952495 -1.617536842766476e-07 0
2.999999999955642 4.238041683633343e-10 0
2.902317340075403 0.03749322592685114 0
2.999999998967642 -1.68238402488812e-10 0
2.999999999937906 -1.983226732670567e-11 0
3.000000000003787 -1.102387969784972e-12 0
3.000000002835203 2.43846534606824e-10 0
3.000000252460502 7.679411081252473e-08 0
2.999958307152032 -2.71752433453411e-05 0
2.996656496442811 0.0005912261438320046 0
1.215964895245724 0.7775919539205106 0
1.766760831080955 0.7521901252252363 0
3.070978034632151 -0.0003326311514711044 0
1.819203534931408 0.7032740296181229 0
2.178835849020496 0.6282873500214531 0
2.391471737891885 0.4191460067247054 0
2.602449810265244 0.3399023637103308 0
2.999998738881167 1.142773399419402e-07 0
2.78086529205205 0.1647255036190853 0
2.864989418070309 0.1216281933513987 0
2.76448061515941 0.2421737736745308 0
2.924578287158274 0.07960521436575879 0
2.871122382617686 0.1550294590005154 0
2.960784330869832 0.04757458723439926 0
2.934363262042491 0.09048792522217407 0
2.983062400689311 0.01874400388640012 0
2.99999999991892 6.301441638889218e-11 0
2.999999938551633 -2.09940128022756e-07 0
2.981076359478728 0.0260803496906327 0
2.968685720928292 0.04888646530896432 0
3.000003276200288 -1.054191295256476e-06 0
3.000000007624874 -2.923429678773576e-09 0
2.99154050687994 0.01313020793131161 0
2.986015823083547 0.02456814861178655 0
3.000000000621456 1.717958695391325e-10 0
2.998421616568741 0.0001858851651243806 0
2.957184046626416 0.08010673011158165 0
2.981174640576342 0.04000422711872144 0
2.996373352068374 0.006308126898704395 0
2.998173547539486 0.002873564607448172 0
3.082253443260217 -0.0002789831818340052 0
2.956839528591993 0.1003367254565369 0
2.98105946011595 0.05183754771972466 0
2.682238499363193 0.1933088548866151 0
2.918276025474314 0.05545768721010478 0
2.965667157129156 0.1025222461772274 0
2.985537799950743 0.05355905902186076 0
2.999238954155891 0.001334080004429601 0
2.99968632826899 0.0005064755946363171 0
2.992470737764048 0.02405649270443196 0
2.994509974151072 0.02553271193744183 0
2.991507952493265 0.04961084702982061 0
2.997282113994011 0.02320071263637198 0
2.997217602245322 0.04162404089273457 0
2.99971190511577 0.0188020785817551 0
3.001377585689606 0.03174479054197529 0
3.001249848035033 0.01379701269729232 0
3.00354129415779 0.02221487204274576 0
3.001841319830008 0.009241250218376615 0
3.003833916338531 0.01363593163192521 0
3.0017055079001 0.005496506852432409 0
3.00318363546399 0.007804483484468293 0
3.001257743071638 0.002956335814787556 0
3.002178531820988 0.003979168447141945 0
3.000778940690835 0.001428837711633041 0
3.001251112860126 0.001771168617796969 0
3.000406705498173 0.0006050657908004633 0
3.000627900202933 0.0006995594040757868 0
3.000176579195674 0.0002189343120502759 0
3.000251327070113 0.0002236214890878288 0
3.000059681573184 6.433975629485134e-05 0
3.000076691905955 5.462214272623236e-05 0
3.000013317233614 1.410613455943077e-05 0
3.000015701492394 9.423134156790008e-06 0
3.000000184714111 1.720492289071534e-06 0
3.00000047614429 8.649715415913679e-07 0
2.99999867885017 -9.291634879307226e-08 0
2.999998823501578 2.594937116643378e-08 0
2.999999460420752 -8.634428014461565e-08 0
2.999999524213891 3.167240112878893e-08 0
2.999999935776777 -2.097471454239533e-08 0
2.999999952312047 1.813989922539283e-09 0
3.000000029909617 -8.355829008677772e-09 0
3.000000023872692 -1.131258497438467e-08 0
3.000000006604818 -4.723415100330796e-10 0
3.000000004220515 -1.664792134138532e-09 0
2.999999997325933 1.267185984931701e-09 0
2.999999998140895 1.684572573298598e-09 0
3.00000000048828 -4.312524499665742e-10 0
3.000000000240621 -4.081737152450476e-10 0
3.00000000000554 4.126539594501583e-11 0
2.999999999988736 1.09884976695196e-11 0
2.999999999975978 2.574957748560437e-11 0
3.000000000014349 1.773743010587674e-11 0
2.999999999999559 -1.120501006968504e-11 0
2.999999999988687 -5.962052618439426e-12 0
3.000000000008661 -3.888589918744182e-14 0
3.000000000001557 3.116807434260737e-12 0
2.999999999997887 2.681864699770867e-12 0
2.999999999997499 -3.164271327790688e-12 0
2.999999999996937 -1.281868637559393e-12 0
3.00000000001462 1.97154915134543e-13 0
2.999999999981697 2.846336839033259e-13 0
3.000000000005 2.810682368600186e-12 0
3.000000000028147 -2.337603609670004e-12 0
2.999999999933648 -4.35444895922305e-14 0
3.000000000071819 4.27189114863231e-12 0
3.000000000005341 -3.867542159154248e-12 0
2.999999999845838 -4.019986744097577e-13 0
3.000000000246796 2.518803715966234e-12 0
2.999999999854191 -7.072217017595173e-12 0
2.999999999795377 8.005603122440521e-13 0
3.000000000676411 4.808324534140803e-12 0
2.999999999445487 7.739800440913695e-13 0
2.999999998844079 7.701825303859366e-12 0
3.000000002264502 -3.932365916258359e-11 0
3.000000007227297 -1.011126755310899e-10 0
3.000000003975014 -1.562115070967381e-10 0
2.999999972008609 5.865699113723127e-10 0
2.999999864446595 1.776740303156157e-09 0
3.091552543515661 -8.776662230556079e-05 0
2.999999633994946 7.219625931751484e-09 0
2.89165925179255 0.05967154276495105 0
2.978850249240502 0.01343371052236267 0
2.976285112342728 0.01201933386697284 0
2.996294141070568 0.002241409548053717 0
2.999999999596002 1.045824344083441e-11 0
2.999999999926333 -3.521034501710489e-12 0
3.000633107085305 0.005219539625988987 0
3.000000000003378 -1.521371478657778e-12 0
3.000000000019429 6.573549534929055e-11 0
2.997931815372477 0.0009804096318421966 0
2.999936833841312 5.228336408636019e-05 0
2.999579725171492 0.0003159888927188141 0
3.000000029834136 -7.210940707109945e-09 0
3.000206424342418 0.0004178618149845807 0
2.999998687870564 1.244121768911069e-06 0
2.998152167880736 0.01095239419775167 0
2.999871840776878 0.0002286608463992438 0
2.999960081521416 6.752709812845177e-05 0
2.999999415504324 2.083137314632652e-08 0
3.006101508385911 0.01752754014258219 0
2.999999872973767 3.459981175792204e-09 0
2.999999444307836 2.692699963110959e-09 0
3.000254613241949 0.0001517210375399653 0
2.999999077670495 1.79221676042802e-07 0
3.00000000246604 -2.081826392107517e-09 0
2.999999999991475 4.797346910861263e-12 0
3.000015596160276 -4.932528388200086e-06 0
2.999970541268253 3.339125950980287e-05 0
2.999999999976903 -3.712081155220044e-12 0
2.999999999836411 9.213161963537022e-13 0
2.999999970221668 2.143789326731288e-11 0
2.925508190794884 0.1792336995209753 0
2.998553586152317 0.06469575860363562 0
2.999999656648936 7.21186305766956e-09 0
2.999999802201872 -3.325005363964587e-08 0
2.999984837446128 2.826905158233141e-05 0
2.999962944337173 7.549006330760525e-05 0
2.999997159408552 5.644235339989466e-06 0
2.99999221521746 1.400760238266886e-05 0
3.000000074174197 3.113407295351994e-07 0
2.999999860408033 1.175863012028719e-06 0
3.000000294990063 -3.521372110803694e-07 0
3.000000504786785 -4.729859793973738e-07 0
3.000000071985572 -1.140062407341925e-07 0
3.000000160086097 -2.114654619412683e-07 0
2.999999997367996 -9.769198140875143e-09 0
3.000000009491029 -2.768056331482671e-08 0
0.1849107083495078 0.4180559812341844 0
2.879394319439452 0.05190936491585377 0
2.999999994465691 6.124304026843724e-09 0
3.000082537679291 -1.589626616234977e-05 0
3.000666120176367 0.0001015150951548254 0
3.000006625401721 -3.022422940409285e-06 0
2.608469481516221 0.1401725124464376 0
2.999999990376925 8.772097180242767e-09 0
2.999999445654865 7.154103535092964e-09 0
2.999999887490948 3.26963688747644e-09 0
3.000002455719993 -1.007939165882091e-07 0
3.000014597973035 -6.904475139096095e-07 0
2.177295651449945 0.2490404545611031 0
2.999999316372288 1.575447327723936e-06 0
3.000021748619142 -2.568082032951455e-06 0
3.000000001490973 -1.058967375556688e-09 0
2.999999998276595 -3.248035231828001e-11 0
2.99951282383028 0.0001548578218244307 0
3.000107458597492 -2.193661217822713e-05 0
3.00000000023393 -9.303918676708618e-11 0
3.00000001936123 -6.260238493996411e-08 0
3.000000000014731 2.725801229002035e-13 0
3.000000000033274 -1.414758979119814e-11 0
2.999999997254162 9.580579875197682e-10 0
2.999999490547064 -1.930365518741652e-07 0
3.000000000010884 1.453364468786948e-11 0
3.000000000158169 -4.660942276224861e-12 0
3.000000000335051 -2.668395958281796e-11 0
3.000002146649658 -1.536013366687719e-06 0
2.999999962863396 -2.595983006558515e-09 0
2.96906374548215 0.01126563430740748 0
2.99948386374756 -7.015054459968506e-05 0
3.000029160373781 4.952369243420393e-05 0
3.00000000000449 9.356549008868272e-13 0
2.999999998791825 1.521623901511654e-10 0
2.999999998932962 8.814660150292481e-11 0
2.999999933459734 -2.750573017639707e-07 0
3.000000013249025 -3.373059590003773e-08 0
2.999999999942372 1.695081181820009e-11 0
2.999999999949279 -3.33748716766201e-11 0
3.000000000010905 6.544575904390723e-13 0
2.999999999956374 1.299676923582244e-11 0
3.000594701063975 0.001893241458776033 0
2.999999999997073 -1.92511616092823e-13 0
2.999999999982979 -2.989689925718728e-10 0
2.999999966109414 1.327720090840173e-08 0
3.000014435764897 3.163466556309268e-06 0
3.00000000024905 9.850310335870884e-12 0
3.000000000068894 1.461736645359496e-12 0
3.002896664530139 0.004287291243115346 0
3.000000020109221 -3.248886422662448e-09 0
3.000000791012844 -5.297302782249272e-07 0
3.000667074234768 -5.793552534902786e-05 0
2.561042255250824 0.01526648528526007 0
2.999999998944598 7.40014892676967e-12 0
3.000006446143525 -2.879116152677395e-06 0
2.999999993136656 2.472335687130998e-09 0
2.686831428344689 0.3696968028361308 0
3.000001098276051 -5.44015452563091e-07 0
3.000000000713778 -2.170213577979644e-10 0
3.000000023186478 -4.748503270950448e-08 0
2.999999981727105 1.457447936776835e-08 0
3.000052318639851 -1.256400903763219e-06 0
2.999999677598976 7.353515091682063e-09 0
2.999999977751994 1.158112969365647e-09 0
3.000000143309564 -1.999250494446375e-07 0
2.999999998566222 1.052159755145955e-09 0
2.999982494248041 2.959229953268678e-05 0
3.000173154652651 -6.820253346585362e-06 0
3.000000000938924 -8.435339398406501e-10 0
2.999613985983169 0.0003553964310468546 0
3.000186395753505 5.888248522503456e-06 0
3.000079206839389 -1.788765483509053e-05 0
3.000014181329159 -4.587141023129804e-06 0
3.000013646044264 -2.09669411954706e-07 0
3.000163965779757 -9.385198660511777e-07 0
3.082180668630744 0.00138263478774856 0
3.066367053819082 -0.001238218768584102 0
2.999973321420967 3.643333202348665e-05 0
2.99999999944146 1.963061864204108e-10 0
2.947790048452556 0.1649996353590474 0
2.890361809214208 0.2593996829984607 0
2.92924806273086 0.2187388389210933 0
3.000059672635936 -2.303207253277378e-06 0
2.998682352161611 0.002570430072670475 0
1.448797481271193 0.6860920353097166 0
2.999748247720598 0.0002792438601948057 0
3.000000114579957 -9.63341709601058e-08 0
2.999999868248689 3.429130105088879e-08 0
2.999999912959394 3.509104283286486e-09 0
3.000002582560816 -1.504139798035237e-06 0
2.99999999967728 4.338049492159952e-10 0
2.859021660260108 0.2968083967640656 0
2.909000582589272 0.2324146602585807 0
2.79415395365588 0.3623546680237011 0
3.000565835423161 -2.114872946483269e-05 0
3.000199442675795 -2.022364954630611e-06 0
3.000000000129079 -3.592581688474165e-10 0
2.999999999529217 5.877427121247631e-11 0
2.999999897625413 4.890442703217807e-09 0
3.000000005703191 4.028502111829545e-10 0
3.000000007095137 -2.218117073695124e-10 0
3.00000000114243 -1.828301118189264e-10 0
2.999999998690677 4.049015358426572e-11 0
2.999999999939366 1.755003742041946e-11 0
3.000000000608893 -3.870159744082471e-12 0
2.999999999622366 3.689458477796957e-12 0
2.999999999964172 -9.556402955515518e-12 0
3.000000000223795 5.279497384966386e-12 0
2.999999999806769 -4.152657301691579e-12 0
3.000000000030262 2.632068131135155e-11 0
3.00000000006913 -8.5321904043536e-12 0
2.999999999947716 -2.765983939352064e-11 0
3.0000000000306 1.84805171680151e-11 0
2.99999999999734 -2.240045681131422e-13 0
2.999999999976758 -4.760004538207187e-12 0
3.000000000011523 9.413693561464826e-12 0
3.000000000006755 -6.199685917968587e-12 0
2.999999999993643 -1.28717485961066e-12 0
2.999999999992368 3.463877611703128e-12 0
3.000000000012175 -3.477553260565427e-12 0
3.000000000006174 2.356050052418997e-12 0
2.999999999982399 1.10668405721364e-12 0
3.000000000002951 -4.05003586257672e-12 0
3.000000000012987 1.502312143349462e-12 0
2.999999999986704 3.74477838698759e-12 0
2.99999999999546 4.956117929408778e-13 0
3.000000000032053 -6.116145739551103e-12 0
3.000000000012939 -4.513474824995654e-12 0
2.99999999990881 -9.308402742654756e-13 0
2.999999999925251 -8.078166828403278e-12 0
3.000000000221041 8.260759321654147e-11 0
3.000000000132935 1.150804754089486e-10 0
2.999999999971502 -4.231426212290803e-10 0
3.000000000275383 -2.778039080017827e-10 0
2.999999997882873 2.917348361770651e-10 0
2.999999998433467 -5.383728847712515e-10 0
3.00000000239013 5.234464611966446e-09 0
2.99999999871319 3.42993312735958e-09 0
3.000000024366514 8.019709427626699e-09 0
3.000000010615858 9.649659301940601e-09 0
3.000000036289084 -1.998141547548991e-08 0
3.000000030719546 2.855691097401984e-11 0
2.999999964049057 -1.410029882846578e-07 0
3.00000001595274 -6.564935842703275e-08 0
2.999999697299633 -4.007806465354246e-07 0
2.999999908802292 -2.315718588823245e-07 0
2.999999252623597 -4.682120868750785e-07 0
2.999999665050053 -3.797804170674478e-07 0
2.999999067136489 9.276562793962055e-07 0
2.99999940230844 5.979127764603851e-08 0
2.999999746031955 6.644299897886954e-06 0
2.999999247470883 1.945497991575263e-06 0
3.000001823931765 2.166373588417554e-05 0
2.999999194579914 6.739383466371966e-06 0
3.000004972642127 5.163536154422382e-05 0
2.99999917799795 1.578694912831359e-05 0
3.000007872478995 0.0001011932215356664 0
2.999999127913426 3.108813948902454e-05 0
3.000007897805751 0.0001773738755078081 0
2.999997867287678 5.581557279566877e-05 0
2.99999685215407 0.0002789073867329495 0
2.999992288881169 8.528886686015491e-05 0
2.999967046487135 0.000380701307816322 0
2.999982602447652 0.000102200435924615 0
2.999925355801941 0.0004242990973905413 0
2.999977904941971 8.208029526696963e-05 0
2.999912504409743 0.0003139963645603384 0
2.999984318120613 4.565311066171705e-05 0
2.999937223597877 0.0001792839685487872 0
2.999991525296206 2.314364367811997e-05 0
3.000052604556808 -1.178710479605852e-06 0
3.000498822677095 -5.915178452601803e-06 0
3.000000032852158 -7.591169014737165e-08 0
2.99999996861278 2.042601234321307e-08 0
3.000250204606255 -2.034641296601208e-05 0
2.998089483020812 0.0005496461281616117 0
3.001348596593559 -3.496089133858418e-05 0
2.999963965433955 9.387252678274145e-05 0
2.999996394838154 9.868704404271301e-06 0
2.999779431758453 0.0005870966786765751 0
2.9999992374753 5.112284352790947e-08 0
3.001627210513561 -1.631195575107744e-05 0
3.000549248505498 1.792930536621154e-06 0
3.003777085582808 1.563235449459298e-05 0
3.001406482489426 -4.689172927700262e-05 0
3.000185761695003 -4.93625151759872e-06 0
3.000552479481395 -3.303359104795544e-05 0
3.000062222774804 -3.312817202784845e-06 0
3.000213333800789 -9.308253075640974e-06 0
3.000018026586844 -5.060540600141587e-07 0
3.000065376632021 1.949878580086973e-06 0
3.000003058395546 3.851559696740317e-07 0
3.000719635106143 9.438992947886994e-06 0
2.999999799995056 1.194276209431322e-08 0
2.999999336504642 2.036798385712416e-08 0
2.999985066065042 2.500624413573737e-05 0
2.999852970272565 0.0001867151475074896 0
2.999999959975585 1.802877789275514e-08 0
2.999997069242286 7.290882212666634e-06 0
2.999999740667886 4.513614994441567e-08 0
3.000000000079197 2.485652917374278e-10 0
0.449448906517583 0.08965661489151475 0
2.999999607222345 -3.172463637825772e-09 0
2.999999879063781 -1.181884309988355e-08 0
2.999999971832438 -1.642891133395434e-09 0
3.000000007028336 -1.116440535404414e-09 0
3.000000007840764 1.304823199766888e-10 0
3.000000001425155 3.709798989349202e-10 0