<?xml version="1.0"?>
<VTKFile type="UnstructuredGrid">
  <UnstructuredGrid>
  <Piece NumberOfPoints="1224"  NumberOfCells="2290">
    <Points>
      <DataArray type="Float64" NumberOfComponents="3" format="ascii">
0 0 0
0.6 0 0
0.6 0.2 0
87 0.2 0
87 1 0
0 1 0
0.05454545454535233 0 0
0.1090909090906768 0 0
0.1636363636359771 0 0
0.2181818181812728 0 0
0.2727272727265793 0 0
0.3272727272720317 0 0
0.3818181818176247 0 0
0.4363636363632168 0 0
0.4909090909088285 0 0
0.5454545454544089 0 0
0.6 0.03999999999991203 0
0.6 0.07999999999979179 0
0.6 0.1199999999997886 0
0.6 0.1599999999998948 0
8.242334701869515 0.2 0
10.64784651186585 0.2 0
12.68230555544907 0.2 0
14.5950306058141 0.2 0
16.43377728018244 0.2 0
18.22632782974761 0.2 0
19.98585589097489 0.2 0
21.72263754498408 0.2 0
23.44307788499941 0.2 0
25.15146616577401 0.2 0
26.8508178841401 0.2 0
28.54329497923602 0.2 0
30.23049005464232 0.2 0
31.91360837601585 0.2 0
33.5935311471949 0.2 0
35.27093226007709 0.2 0
36.94633988227038 0.2 0
38.62016414630622 0.2 0
40.29272571359267 0.2 0
41.96427685517396 0.2 0
43.63501738723363 0.2 0
45.30510598383768 0.2 0
46.97466922872687 0.2 0
48.64380836776363 0.2 0
50.31260465094969 0.2 0
51.9811233935193 0.2 0
53.64941722365055 0.2 0
55.31752860155189 0.2 0
56.985491841025 0.2 0
58.65333472131294 0.2 0
60.32107975737505 0.2 0
61.988745227934 0.2 0
63.65634597375126 0.2 0
65.3238940632551 0.2 0
66.99139928538528 0.2 0
68.65886962375454 0.2 0
70.32631177270035 0.2 0
71.99373106252398 0.2 0
73.66113170265164 0.2 0
75.3285174569579 0.2 0
76.99589125711813 0.2 0
78.66325554282591 0.2 0
80.33061240869691 0.2 0
81.99796387141872 0.2 0
83.66531135910463 0.2 0
85.33265632020733 0.2 0
87 0.2533333333332341 0
87 0.3066666666664725 0
87 0.3599999999996274 0
87 0.413333333332804 0
87 0.4666666666659806 0
87 0.5199999999991571 0
87 0.5733333333323336 0
87 0.6266666666656895 0
87 0.6799999999991551 0
87 0.7333333333326146 0
87 0.7866666666660802 0
87 0.8399999999995775 0
87 0.8933333333330373 0
87 0.9466666666664969 0
85.33978320572282 1 0
83.67956772287646 1 0
82.01935485747209 1 0
80.35914607721242 1 0
78.69894294287394 1 0
77.03874724727005 1 0
75.37856126095738 1 0
73.71838721967056 1 0
72.05822867619268 1 0
70.39808886751054 1 0
68.73797236034927 1 0
67.07788493276584 1 0
65.41783272454872 1 0
63.75782453205407 1 0
62.09786958013753 1 0
60.43798113382206 1 0
58.77817301370927 1 0
57.11846582399662 1 0
55.45887914859602 1 0
53.79944472708181 1 0
52.14019307998903 1 0
50.48117073072938 1 0
48.82242918627117 1 0
47.16403179693105 1 0
45.50605880941312 1 0
43.84860925433206 1 0
42.19180389818614 1 0
40.5357938237998 1 0
38.88076901464329 1 0
37.22694797506571 1 0
35.57460779318949 1 0
33.92412264500856 1 0
32.27587495621169 1 0
30.63043135603333 1 0
28.98842426558336 1 0
27.35064306723421 1 0
25.71805790648673 1 0
24.09182937487403 1 0
22.47339404418369 1 0
20.86443141972549 1 0
19.2669519762384 1 0
17.6833425518765 1 0
16.11596450831981 1 0
14.5671771026656 1 0
13.0393018389082 1 0
11.53565972327936 1 0
10.06072719118317 1 0
8.623930628629394 1 0
7.241655411048336 1 0
5.939671615637621 1 0
4.734931858685806 1 0
3.651760344834755 1 0
2.700815097091701 1 0
1.940190545507822 1 0
1.331215616081535 1 0
0.8648921622846057 1 0
0.5141705777390569 1 0
0.2344434368778266 1 0
0 0.9473684210524125 0
0 0.8947368421048248 0
0 0.8421052631576025 0
0 0.7894736842105994 0
0 0.7368421052635962 0
0 0.6842105263165927 0
0 0.6315789473695894 0
0 0.5789473684225861 0
0 0.5263157894755828 0
0 0.4736842105282874 0
0 0.4210526315806998 0
0 0.3684210526331123 0
0 0.3157894736855248 0
0 0.2631578947379374 0
0 0.21052631579035 0
0 0.1578947368427625 0
0 0.1052631578951749 0
0 0.05263157894758741 0
5.438829890592555 0.955462795473483 0
6.53744147581549 0.2394317949808221 0
15.36526423862214 0.9557759867023439 0
72.97860368222882 0.9559758769411787 0
66.24783997013958 0.9559648099769389 0
59.60803451971969 0.9559648099769389 0
52.96972309545743 0.9559648099772646 0
46.42023863489462 0.9560078743553572 0
39.79137952241187 0.9561420672712786 0
33.09890214543675 0.95627738856474 0
26.53198227191339 0.9563034567995272 0
0.1105845811553349 0.5498854761242812 0
20.85946604756805 0.2442383967812095 0
69.54357629454898 0.2421522008426663 0
62.82250170449338 0.243586373321511 0
56.15157563670557 0.24363095694403 0
49.47842855573342 0.2436741865527954 0
42.80006592696288 0.2437170671454607 0
36.10939070057579 0.2437587738062726 0
29.38828516448022 0.2442249255777628 0
3.286600921275074 0.2417757800606361 0
6.264690319369766 0.2785115072887754 0
85.41714509362228 0.5995349944823752 0
3.891785701338074 0.2791940688436214 0
6.033585451467463 0.3180386921514113 0
4.089143753964217 0.3181181454258206 0
5.782660460678137 0.3577335228902347 0
76.27395370936537 0.2416532643303031 0
4.094700437914854 0.3576683284772433 0
5.51352499059541 0.3976917483469583 0
7.155365798455996 0.3977458985417416 0
6.749602552532772 0.4382323507424581 0
8.344179068518738 0.4382172989803606 0
7.865712582018261 0.4790536480492864 0
9.413531028559932 0.4792447281197085 0
6.418493108532967 0.4817209888486334 0
2.275170402716248 0.9660670791366374 0
20.06409032660514 0.9559852449915113 0
8.882231117652061 0.5203953730037822 0
10.40508677088291 0.5205851219036783 0
77.9921306058946 0.9563165682871465 0
0.04680921749387771 0.2894490564426765 0
9.822619384076782 0.5622881188475496 0
11.33730113559521 0.5621981517123112 0
0.1449138999822624 0.7091098825652095 0
0.2641096693887787 0.04723774929726795 0
11.9470605550593 0.5200372393771872 0
12.8657319454083 0.562505099575485 0
10.72817162791743 0.6041261864689124 0
9.241573148921098 0.6041581669226386 0
85.50888890808585 0.4393531299125908 0
13.52425009868595 0.5199435586712576 0
14.42814600270617 0.5624873891767795 0
2.56241547183209 0.3174350849704655 0
2.728665583649087 0.3576870257641042 0
15.11504273775803 0.5195844107098163 0
16.01405578114364 0.5621174250913318 0
10.11506726933796 0.6460588488486728 0
8.665156889927774 0.6462390077748084 0
15.28242090692013 0.6067218912904607 0
16.89336924366183 0.6047738158182728 0
17.61566642871716 0.5617915498272615 0
18.49085034294029 0.6045430073239006 0
19.23302548363456 0.5614360364847856 0
20.1017625246385 0.6046345614192383 0
20.85559955218358 0.5613114208485291 0
21.72301878418295 0.604758732930365 0
22.47102745751558 0.5597386087889248 0
23.35505728400309 0.6042836632406788 0
24.1426494022808 0.5607219500906248 0
24.99924567984759 0.6043040651294929 0
25.79173364118238 0.5598592244124957 0
26.64529735324819 0.6040638744783449 0
27.44433087503559 0.5595216793632644 0
28.29494446210809 0.6038781229769293 0
29.09912990445815 0.5600604284234054 0
29.94721001135592 0.6038664424080111 0
30.74013110276585 0.55874807111347 0
31.60012193786386 0.6035341865995129 0
32.40423335944836 0.5586520846649797 0
33.25810524704014 0.6034054551655909 0
34.07294388420469 0.558835304845746 0
34.91765765329309 0.6032503772964327 0
35.73536143285494 0.5587079795953892 0
36.57780336691593 0.6030926920218221 0
37.39705364230475 0.5580480170404921 0
38.23848996791313 0.6028436706904448 0
39.05915017398998 0.5577680566445021 0
39.89976811713923 0.6026435181305781 0
40.72160936366851 0.5575726351194972 0
41.56160266398487 0.6024617369905624 0
42.38439629375638 0.5573842056888257 0
43.22399872036333 0.6022873884346892 0
44.04745112451662 0.5572075399874397 0
44.88664431482281 0.6021111834258887 0
45.71069919392612 0.5570246051384745 0
46.54950498544996 0.6019307913070558 0
47.37408678767115 0.5568475628142857 0
48.21261180168108 0.6017522495250318 0
49.03760142970994 0.5566653603575672 0
49.87596901564147 0.601574020443024 0
50.70122366795113 0.5564884669211013 0
51.53940702927319 0.601395113412113 0
52.36491646499734 0.5563067813822595 0
53.20278588573325 0.6012129143420911 0
54.02864170038325 0.5561292537946573 0
54.8663822702314 0.601032757987411 0
55.69243407843057 0.5559477304122714 0
56.53024231714023 0.600855564813206 0
57.35629808145358 0.5557710179709322 0
58.19402788591604 0.6006760179252703 0
59.02017547842517 0.5555900146741853 0
59.85776946269176 0.6004921726308964 0
60.68405854064209 0.5554125217101814 0
61.52159287743482 0.6003111949874665 0
62.34796506491585 0.5552312296013228 0
63.18535073645517 0.6001298880828497 0
64.01188032921129 0.5550546947866846 0
64.84925263932662 0.599950595338254 0
65.67589523034358 0.5548708301001631 0
66.51338940495813 0.5997713467128002 0
67.34023335586122 0.5547000681173012 0
68.17791908335815 0.5996004731097838 0
69.00512375698224 0.5545095609010697 0
69.84286589048284 0.5994220729206983 0
70.67096905839435 0.5543494429014709 0
71.50835709431425 0.5993228147833797 0
72.3385235656453 0.5541346321759457 0
73.17812646405977 0.5992395038842441 0
74.01058475422521 0.5540180644105763 0
85.6594898509268 0.7598964409357507 0
74.85409566575029 0.5990918128353608 0
1.62124164192462 0.3159793431387367 0
1.806602504803554 0.357715436029677 0
1.048627819027598 0.3157219358498637 0
1.189572996693647 0.3576135465858128 0
69.01057174057675 0.643990885448769 0
62.35880075089642 0.6444881680698032 0
22.5734774557836 0.6487487015028032 0
55.70410943071806 0.6452136474256573 0
49.0507494434291 0.6459229900926835 0
0.689778515903458 0.3150377509381005 0
0.7897057620488452 0.3574251905568473 0
1.267014643743314 0.4002519798591844 0
42.40082154508548 0.6466170330762969 0
29.14344762628789 0.6479317947648683 0
35.76086697482955 0.6473399689389928 0
17.76388246118974 0.6483605753517908 0
9.512128921972943 0.6883083412871458 0
8.094178835720829 0.6885103796531055 0
75.68760364250393 0.5527758280498023 0
24.90527385992968 0.5148848291986879 0
74.0186929470339 0.6438096025956825 0
75.69777184376424 0.6437140715169269 0
33.21157078093201 0.5138574114565649 0
39.86867570277161 0.5115839513085039 0
46.52538133604349 0.5109012431757174 0
53.18264030131809 0.510388685431229 0
0.8454816098220791 0.4001745965167012 0
1.288479618458391 0.4433206937839571 0
59.84012907318779 0.5096846626216972 0
[...]
    <PointData>
      <DataArray type="Float64" NumberOfComponents="3" Name="Velocity" format="ascii">
-nan -nan 0
-nan -nan 0
-nan -nan 0
-nan -nan 0
-nan -nan 0
-nan -nan 0
-nan -nan 0
-nan -nan 0
-nan -nan 0
-nan -nan 0
-nan -nan 0
-nan -nan 0
-nan -nan 0
-nan -nan 0
-nan -nan 0
-nan -nan 0
-nan -nan 0
-nan -nan 0
-nan -nan 0
-nan -nan 0
-nan -nan 0
-nan -nan 0
-nan -nan 0
-nan -nan 0
-nan -nan 0
-nan -nan 0
-nan -nan 0
-nan -nan 0
-nan -nan 0
-nan -nan 0
-nan -nan 0
-nan -nan 0
-nan -nan 0
-nan -nan 0
-nan -nan 0
-nan -nan 0
-nan -nan 0
-nan -nan 0
-nan -nan 0
-nan -nan 0
-nan -nan 0
-nan -nan 0
-nan -nan 0
-nan -nan 0
-nan -nan 0
-nan -nan 0
-nan -nan 0
-nan -nan 0
-nan -nan 0
-nan -nan 0
-nan -nan 0
-nan -nan 0
-nan -nan 0
-nan -nan 0
-nan -nan 0
-nan -nan 0
-nan -nan 0
-nan -nan 0
-nan -nan 0
-nan -nan 0
-nan -nan 0
-nan -nan 0
-nan -nan 0
-nan -nan 0
-nan -nan 0
-nan -nan 0
-nan -nan 0
-nan -nan 0
-nan -nan 0
-nan -nan 0
-nan -nan 0
-nan -nan 0
-nan -nan 0
-nan -nan 0
-nan -nan 0
-nan -nan 0
-nan -nan 0
-nan -nan 0
-nan -nan 0
-nan -nan 0
-nan -nan 0
-nan -nan 0
-nan -nan 0
-nan -nan 0
-nan -nan 0
-nan -nan 0
-nan -nan 0
-nan -nan 0
-nan -nan 0
-nan -nan 0
-nan -nan 0
-nan -nan 0
-nan -nan 0
-nan -nan 0
-nan -nan 0
-nan -nan 0
-nan -nan 0
-nan -nan 0
-nan -nan 0
-nan -nan 0
-nan -nan 0
-nan -nan 0
-nan -nan 0
-nan -nan 0
-nan -nan 0
-nan -nan 0
-nan -nan 0
-nan -nan 0
-nan -nan 0
-nan -nan 0
-nan -nan 0
-nan -nan 0
-nan -nan 0
-nan -nan 0
-nan -nan 0
-nan -nan 0
-nan -nan 0
-nan -nan 0
-nan -nan 0
-nan -nan 0
-nan -nan 0
-nan -nan 0
-nan -nan 0
-nan -nan 0
-nan -nan 0
-nan -nan 0
-nan -nan 0
-nan -nan 0
-nan -nan 0
-nan -nan 0
-nan -nan 0
-nan -nan 0
-nan -nan 0
-nan -nan 0
-nan -nan 0
-nan -nan 0
-nan -nan 0
-nan -nan 0
-nan -nan 0
-nan -nan 0
-nan -nan 0
-nan -nan 0
-nan -nan 0
-nan -nan 0
-nan -nan 0
-nan -nan 0
-nan -nan 0
-nan -nan 0
-nan -nan 0
-nan -nan 0
-nan -nan 0
-nan -nan 0
-nan -nan 0
-nan -nan 0
-nan -nan 0
-nan -nan 0
-nan -nan 0
-nan -nan 0
-nan -nan 0
-nan -nan 0
-nan -nan 0
-nan -nan 0
-nan -nan 0
-nan -nan 0
-nan -nan 0
-nan -nan 0
-nan -nan 0
-nan -nan 0
-nan -nan 0
-nan -nan 0
-nan -nan 0
-nan -nan 0
-nan -nan 0
-nan -nan 0
-nan -nan 0
-nan -nan 0
-nan -nan 0
-nan -nan 0
-nan -nan 0
-nan -nan 0
-nan -nan 0
-nan -nan 0
-nan -nan 0
-nan -nan 0
-nan -nan 0
-nan -nan 0
-nan -nan 0
-nan -nan 0
-nan -nan 0
-nan -nan 0
-nan -nan 0
-nan -nan 0
-nan -nan 0
-nan -nan 0
-nan -nan 0
-nan -nan 0
-nan -nan 0
-nan -nan 0
-nan -nan 0
-nan -nan 0
-nan -nan 0
-nan -nan 0
-nan -nan 0
-nan -nan 0
-nan -nan 0
-nan -nan 0
-nan -nan 0
-nan -nan 0
-nan -nan 0
-nan -nan 0
-nan -nan 0
-nan -nan 0
-nan -nan 0
-nan -nan 0
-nan -nan 0
-nan -nan 0
-nan -nan 0
-nan -nan 0
-nan -nan 0
-nan -nan 0
-nan -nan 0
-nan -nan 0
-nan -nan 0
-nan -nan 0
-nan -nan 0
-nan -nan 0
-nan -nan 0
-nan -nan 0
-nan -nan 0
-nan -nan 0
-nan -nan 0
-nan -nan 0
-nan -nan 0
-nan -nan 0
-nan -nan 0
-nan -nan 0
-nan -nan 0
-nan -nan 0
-nan -nan 0
-nan -nan 0
-nan -nan 0
-nan -nan 0
-nan -nan 0
-nan -nan 0
-nan -nan 0
-nan -nan 0
-nan -nan 0
-nan -nan 0
-nan -nan 0
-nan -nan 0
-nan -nan 0
-nan -nan 0
-nan -nan 0
-nan -nan 0
-nan -nan 0
-nan -nan 0
-nan -nan 0
-nan -nan 0
-nan -nan 0
-nan -nan 0
-nan -nan 0
-nan -nan 0
-nan -nan 0
-nan -nan 0
-nan -nan 0
-nan -nan 0
-nan -nan 0
-nan -nan 0
-nan -nan 0
-nan -nan 0
-nan -nan 0
-nan -nan 0
-nan -nan 0
-nan -nan 0
-nan -nan 0
-nan -nan 0
-nan -nan 0
-nan -nan 0
-nan -nan 0
-nan -nan 0
-nan -nan 0
-nan -nan 0
-nan -nan 0
-nan -nan 0
-nan -nan 0
-nan -nan 0
-nan -nan 0
-nan -nan 0
-nan -nan 0
-nan -nan 0
-nan -nan 0
-nan -nan 0
-nan -nan 0
-nan -nan 0
-nan -nan 0
-nan -nan 0
-nan -nan 0
-nan -nan 0
-nan -nan 0
-nan -nan 0
-nan -nan 0
-nan -nan 0
-nan -nan 0
-nan -nan 0
-nan -nan 0
-nan -nan 0
-nan -nan 0
-nan -nan 0
-nan -nan 0
-nan -nan 0
-nan -nan 0
-nan -nan 0
-nan -nan 0
-nan -nan 0
-nan -nan 0
-nan -nan 0
-nan -nan 0
-nan -nan 0
-nan -nan 0
-nan -nan 0
-nan -nan 0
-nan -nan 0
-nan -nan 0
-nan -nan 0
-nan -nan 0
-nan -nan 0
-nan -nan 0
-nan -nan 0
-nan -nan 0
-nan -nan 0
-nan -nan 0
-nan -nan 0
-nan -nan 0
-nan -nan 0
-nan -nan 0
-nan -nan 0
-nan -nan 0
-nan -nan 0
-nan -nan 0
-nan -nan 0
-nan -nan 0
-nan -nan 0
-nan -nan 0
-nan -nan 0
-nan -nan 0
-nan -nan 0
-nan -nan 0
-nan -nan 0
-nan -nan 0
-nan -nan 0
-nan -nan 0
-nan -nan 0
-nan -nan 0
-nan -nan 0
-nan -nan 0
-nan -nan 0
-nan -nan 0
-nan -nan 0
-nan -nan 0
-nan -nan 0
-nan -nan 0
-nan -nan 0
-nan -nan 0
-nan -nan 0
-nan -nan 0
-nan -nan 0
-nan -nan 0
-nan -nan 0
-nan -nan 0
-nan -nan 0
-nan -nan 0
-nan -nan 0
-nan -nan 0
-nan -nan 0
-nan -nan 0
-nan -nan 0
-nan -nan 0
-nan -nan 0
-nan -nan 0
-nan -nan 0
-nan -nan 0
-nan -nan 0
-nan -nan 0
-nan -nan 0
-nan -nan 0
-nan -nan 0
-nan -nan 0
-nan -nan 0
-nan -nan 0
-nan -nan 0
-nan -nan 0
-nan -nan 0
-nan -nan 0
-nan -nan 0
-nan -nan 0
-nan -nan 0
-nan -nan 0
-nan -nan 0
-nan -nan 0
-nan -nan 0
-nan -nan 0
-nan -nan 0
-nan -nan 0
-nan -nan 0
-nan -nan 0
-nan -nan 0
-nan -nan 0
-nan -nan 0
-nan -nan 0
-nan -nan 0
-nan -nan 0
-nan -nan 0
-nan -nan 0
-nan -nan 0
-nan -nan 0
-nan -nan 0
-nan -nan 0
-nan -nan 0
-nan -nan 0
-nan -nan 0
-nan -nan 0
-nan -nan 0
-nan -nan 0
-nan -nan 0
-nan -nan 0
-nan -nan 0
-nan -nan 0
-nan -nan 0
-nan -nan 0
-nan -nan 0
-nan -nan 0
-nan -nan 0
-nan -nan 0
-nan -nan 0
-nan -nan 0
-nan -nan 0
-nan -nan 0
-nan -nan 0
-nan -nan 0
-nan -nan 0
-nan -nan 0
-nan -nan 0
-nan -nan 0
-nan -nan 0
-nan -nan 0
-nan -nan 0
-nan -nan 0
-nan -nan 0
-nan -nan 0
-nan -nan 0
-nan -nan 0
-nan -nan 0
-nan -nan 0
-nan -nan 0
-nan -nan 0
-nan -nan 0
-nan -nan 0
-nan -nan 0
-nan -nan 0
-nan -nan 0
-nan -nan 0
-nan -nan 0
-nan -nan 0
-nan -nan 0
-nan -nan 0
-nan -nan 0
-nan -nan 0
-nan -nan 0
-nan -nan 0
-nan -nan 0
-nan -nan 0
-nan -nan 0
-nan -nan 0
-nan -nan 0
-nan -nan 0
-nan -nan 0
-nan -nan 0
-nan -nan 0
-nan -nan 0
-nan -nan 0
-nan -nan 0
-nan -nan 0
-nan -nan 0
-nan -nan 0
-nan -nan 0
-nan -nan 0
-nan -nan 0
-nan -nan 0
-nan -nan 0
-nan -nan 0
-nan -nan 0
-nan -nan 0
-nan -nan 0
-nan -nan 0
-nan -nan 0
-nan -nan 0
-nan -nan 0
-nan -nan 0
-nan -nan 0
-nan -nan 0
-nan -nan 0
-nan -nan 0
-nan -nan 0
-nan -nan 0
-nan -nan 0
-nan -nan 0
-nan -nan 0
-nan -nan 0
-nan -nan 0
-nan -nan 0
-nan -nan 0
-nan -nan 0
-nan -nan 0
-nan -nan 0
-nan -nan 0
-nan -nan 0
-nan -nan 0
-nan -nan 0
-nan -nan 0
-nan -nan 0
-nan -nan 0
-nan -nan 0
-nan -nan 0
-nan -nan 0
-nan -nan 0
-nan -nan 0
-nan -nan 0
-nan -nan 0
-nan -nan 0
-nan -nan 0
-nan -nan 0
-nan -nan 0
-nan -nan 0
-nan -nan 0
-nan -nan 0
-nan -nan 0
-nan -nan 0
-nan -nan 0
-nan -nan 0
-nan -nan 0
-nan -nan 0
-nan -nan 0
-nan -nan 0
-nan -nan 0
-nan -nan 0
-nan -nan 0
-nan -nan 0
-nan -nan 0
-nan -nan 0
-nan -nan 0
-nan -nan 0
-nan -nan 0
-nan -nan 0
-nan -nan 0
-nan -nan 0
-nan -nan 0
-nan -nan 0
-nan -nan 0
-nan -nan 0
-nan -nan 0
-nan -nan 0
-nan -nan 0
-nan -nan 0
-nan -nan 0
-nan -nan 0
-nan -nan 0
-nan -nan 0
-nan -nan 0
-nan -nan 0
-nan -nan 0
-nan -nan 0
-nan -nan 0
-nan -nan 0
-nan -nan 0
-nan -nan 0
-nan -nan 0
-nan -nan 0
-nan -nan 0
-nan -nan 0
-nan -nan 0
-nan -nan 0
-nan -nan 0
-nan -nan 0
-nan -nan 0
-nan -nan 0
-nan -nan 0
-nan -nan 0
-nan -nan 0
-nan -nan 0
-nan -nan 0
-nan -nan 0
-nan -nan 0
-nan -nan 0
-nan -nan 0
-nan -nan 0
-nan -nan 0
-nan -nan 0
-nan -nan 0
-nan -nan 0
-nan -nan 0
-nan -nan 0
-nan -nan 0
-nan -nan 0
-nan -nan 0
-nan -nan 0
-nan -nan 0
-nan -nan 0
-nan -nan 0
-nan -nan 0
-nan -nan 0
-nan -nan 0
-nan -nan 0
-nan -nan 0
-nan -nan 0
-nan -nan 0
-nan -nan 0
-nan -nan 0
-nan -nan 0
-nan -nan 0
-nan -nan 0
-nan -nan 0
-nan -nan 0
-nan -nan 0
-nan -nan 0
-nan -nan 0
-nan -nan 0
-nan -nan 0
-nan -nan 0
-nan -nan 0
-nan -nan 0
-nan -nan 0
-nan -nan 0
-nan -nan 0
-nan -nan 0
-nan -nan 0
-nan -nan 0
-nan -nan 0
-nan -nan 0
-nan -nan 0
-nan -nan 0
-nan -nan 0
-nan -nan 0
-nan -nan 0
-nan -nan 0
-nan -nan 0
-nan -nan 0
-nan -nan 0
-nan -nan 0
-nan -nan 0
-nan -nan 0
-nan -nan 0
-nan -nan 0
-nan -nan 0
-nan -nan 0
-nan -nan 0
-nan -nan 0
-nan -nan 0
-nan -nan 0
-nan -nan 0
-nan -nan 0
-nan -nan 0
-nan -nan 0
-nan -nan 0
-nan -nan 0
-nan -nan 0
-nan -nan 0
-nan -nan 0
-nan -nan 0
-nan -nan 0
-nan -nan 0
-nan -nan 0
-nan -nan 0
-nan -nan 0
-nan -nan 0
-nan -nan 0
-nan -nan 0
-nan -nan 0
-nan -nan 0
-nan -nan 0
-nan -nan 0
-nan -nan 0
-nan -nan 0
-nan -nan 0
-nan -nan 0
-nan -nan 0
-nan -nan 0
-nan -nan 0
-nan -nan 0
-nan -nan 0
-nan -nan 0
-nan -nan 0
-nan -nan 0
-nan -nan 0
-nan -nan 0
-nan -nan 0
-nan -nan 0
-nan -nan 0
-nan -nan 0
-nan -nan 0
-nan -nan 0
-nan -nan 0
-nan -nan 0
-nan -nan 0
-nan -nan 0
-nan -nan 0
-nan -nan 0
-nan -nan 0
-nan -nan 0
-nan -nan 0
-nan -nan 0
-nan -nan 0
-nan -nan 0
-nan -nan 0
-nan -nan 0
-nan -nan 0
-nan -nan 0
-nan -nan 0
-nan -nan 0
-nan -nan 0
-nan -nan 0
-nan -nan 0
-nan -nan 0
-nan -nan 0
-nan -nan 0
-nan -nan 0
-nan -nan 0
-nan -nan 0
-nan -nan 0
-nan -nan 0
-nan -nan 0
-nan -nan 0
-nan -nan 0
-nan -nan 0
-nan -nan 0
-nan -nan 0
-nan -nan 0
-nan -nan 0
-nan -nan 0
-nan -nan 0
-nan -nan 0
-nan -nan 0
-nan -nan 0
-nan -nan 0
-nan -nan 0
-nan -nan 0
-nan -nan 0
-nan -nan 0
-nan -nan 0
-nan -nan 0
-nan -nan 0
-nan -nan 0
-nan -nan 0
-nan -nan 0
-nan -nan 0
-nan -nan 0
-nan -nan 0
-nan -nan 0
-nan -nan 0
-nan -nan 0
-nan -nan 0
-nan -nan 0
-nan -nan 0
-nan -nan 0
-nan -nan 0
-nan -nan 0
-nan -nan 0
-nan -nan 0
-nan -nan 0
-nan -nan 0
-nan -nan 0
-nan -nan 0
-nan -nan 0
-nan -nan 0
-nan -nan 0
-nan -nan 0
-nan -nan 0
-nan -nan 0
-nan -nan 0
-nan -nan 0
-nan -nan 0
-nan -nan 0
-nan -nan 0
-nan -nan 0
-nan -nan 0
-nan -nan 0
-nan -nan 0
-nan -nan 0
-nan -nan 0
-nan -nan 0
-nan -nan 0
-nan -nan 0
-nan -nan 0
-nan -nan 0
-nan -nan 0
-nan -nan 0
-nan -nan 0
-nan -nan 0
-nan -nan 0
-nan -nan 0
-nan -nan 0
-nan -nan 0
-nan -nan 0
-nan -nan 0
-nan -nan 0
-nan -nan 0
-nan -nan 0
-nan -nan 0
-nan -nan 0
-nan -nan 0
-nan -nan 0
-nan -nan 0
-nan -nan 0
-nan -nan 0
-nan -nan 0
-nan -nan 0
-nan -nan 0
-nan -nan 0
-nan -nan 0
-nan -nan 0
-nan -nan 0
-nan -nan 0
-nan -nan 0
-nan -nan 0
-nan -nan 0
-nan -nan 0
-nan -nan 0
-nan -nan 0
-nan -nan 0
-nan -nan 0
-nan -nan 0
-nan -nan 0
-nan -nan 0
-nan -nan 0
-nan -nan 0
-nan -nan 0
-nan -nan 0
-nan -nan 0
-nan -nan 0
-nan -nan 0
-nan -nan 0
-nan -nan 0
-nan -nan 0
-nan -nan 0
-nan -nan 0
-nan -nan 0
-nan -nan 0
-nan -nan 0
-nan -nan 0
-nan -nan 0
-nan -nan 0
-nan -nan 0
-nan -nan 0
-nan -nan 0
-nan -nan 0
-nan -nan 0
-nan -nan 0
-nan -nan 0
-nan -nan 0
-nan -nan 0
-nan -nan 0
-nan -nan 0
-nan -nan 0
-nan -nan 0
-nan -nan 0
-nan -nan 0
-nan -nan 0
-nan -nan 0
-nan -nan 0
-nan -nan 0
-nan -nan 0
-nan -nan 0
-nan -nan 0
-nan -nan 0
-nan -nan 0
-nan -nan 0
-nan -nan 0
-nan -nan 0
-nan -nan 0
-nan -nan 0
-nan -nan 0
-nan -nan 0
-nan -nan 0
-nan -nan 0
-nan -nan 0
-nan -nan 0
-nan -nan 0
-nan -nan 0
-nan -nan 0
-nan -nan 0
-nan -nan 0
-nan -nan 0
-nan -nan 0
-nan -nan 0
-nan -nan 0
-nan -nan 0
-nan -nan 0
-nan -nan 0
-nan -nan 0
-nan -nan 0
-nan -nan 0
-nan -nan 0
-nan -nan 0
-nan -nan 0
-nan -nan 0
-nan -nan 0
-nan -nan 0
-nan -nan 0
-nan -nan 0
-nan -nan 0
-nan -nan 0
-nan -nan 0
-nan -nan 0
-nan -nan 0
-nan -nan 0
-nan -nan 0
-nan -nan 0
-nan -nan 0
-nan -nan 0
-nan -nan 0
-nan -nan 0
-nan -nan 0
-nan -nan 0
-nan -nan 0
-nan -nan 0
-nan -nan 0
-nan -nan 0
-nan -nan 0
-nan -nan 0
-nan -nan 0
-nan -nan 0
-nan -nan 0
-nan -nan 0
-nan -nan 0
-nan -nan 0
-nan -nan 0
-nan -nan 0
-nan -nan 0
-nan -nan 0
-nan -nan 0
-nan -nan 0
-nan -nan 0
-nan -nan 0
-nan -nan 0
-nan -nan 0
-nan -nan 0
-nan -nan 0
-nan -nan 0
-nan -nan 0
-nan -nan 0
-nan -nan 0
-nan -nan 0
-nan -nan 0
-nan -nan 0
-nan -nan 0
-nan -nan 0
-nan -nan 0
-nan -nan 0
-nan -nan 0
-nan -nan 0
-nan -nan 0
-nan -nan 0
-nan -nan 0
-nan -nan 0
-nan -nan 0
-nan -nan 0
-nan -nan 0
-nan -nan 0
-nan -nan 0
-nan -nan 0
-nan -nan 0
-nan -nan 0
-nan -nan 0
-nan -nan 0
-nan -nan 0
-nan -nan 0
-nan -nan 0
-nan -nan 0
-nan -nan 0
-nan -nan 0
-nan -nan 0
-nan -nan 0
-nan -nan 0
-nan -nan 0
-nan -nan 0
-nan -nan 0
-nan -nan 0
-nan -nan 0
-nan -nan 0
-nan -nan 0
-nan -nan 0
-nan -nan 0
-nan -nan 0
-nan -nan 0
-nan -nan 0
-nan -nan 0
-nan -nan 0
-nan -nan 0
-nan -nan 0
-nan -nan 0
-nan -nan 0
-nan -nan 0
-nan -nan 0
-nan -nan 0
-nan -nan 0
-nan -nan 0
-nan -nan 0
-nan -nan 0
-nan -nan 0
-nan -nan 0
-nan -nan 0
-nan -nan 0
-nan -nan 0
-nan -nan 0
-nan -nan 0
-nan -nan 0
-nan -nan 0
-nan -nan 0
-nan -nan 0
-nan -nan 0
-nan -nan 0
-nan -nan 0
-nan -nan 0
-nan -nan 0
-nan -nan 0
-nan -nan 0
-nan -nan 0
-nan -nan 0
-nan -nan 0
-nan -nan 0
-nan -nan 0
-nan -nan 0
-nan -nan 0
-nan -nan 0
-nan -nan 0
-nan -nan 0
-nan -nan 0
-nan -nan 0
-nan -nan 0
-nan -nan 0
-nan -nan 0
-nan -nan 0
-nan -nan 0
-nan -nan 0
-nan -nan 0
-nan -nan 0
-nan -nan 0
-nan -nan 0
-nan -nan 0
-nan -nan 0
-nan -nan 0
-nan -nan 0
-nan -nan 0
-nan -nan 0
-nan -nan 0
-nan -nan 0
-nan -nan 0
-nan -nan 0
-nan -nan 0
-nan -nan 0
-nan -nan 0
-nan -nan 0
-nan -nan 0
-nan -nan 0
-nan -nan 0
-nan -nan 0
-nan -nan 0
-nan -nan 0
-nan -nan 0
-nan -nan 0
-nan -nan 0
-nan -nan 0
-nan -nan 0
-nan -nan 0
-nan -nan 0
-nan -nan 0
-nan -nan 0
-nan -nan 0
-nan -nan 0
-nan -nan 0
-nan -nan 0
-nan -nan 0
-nan -nan 0
-nan -nan 0
-nan -nan 0
-nan -nan 0
-nan -nan 0
-nan -nan 0
-nan -nan 0
-nan -nan 0
-nan -nan 0
-nan -nan 0
-nan -nan 0
-nan -nan 0
-nan -nan 0
-nan -nan 0
-nan -nan 0
-nan -nan 0
-nan -nan 0
-nan -nan 0
-nan -nan 0
-nan -nan 0
-nan -nan 0
-nan -nan 0
-nan -nan 0
-nan -nan 0
-nan -nan 0
-nan -nan 0
-nan -nan 0
-nan -nan 0
-nan -nan 0
-nan -nan 0
-nan -nan 0
-nan -nan 0
-nan -nan 0
-nan -nan 0
-nan -nan 0
-nan -nan 0
-nan -nan 0
-nan -nan 0
-nan -nan 0
-nan -nan 0
-nan -nan 0
-nan -nan 0
-nan -nan 0
-nan -nan 0
-nan -nan 0
-nan -nan 0
-nan -nan 0
-nan -nan 0
-nan -nan 0
-nan -nan 0
-nan -nan 0
-nan -nan 0
-nan -nan 0
-nan -nan 0
-nan -nan 0
-nan -nan 0
-nan -nan 0
-nan -nan 0
-nan -nan 0
-nan -nan 0
-nan -nan 0
-nan -nan 0
-nan -nan 0
-nan -nan 0
-nan -nan 0
-nan -nan 0
-nan -nan 0
-nan -nan 0
-nan -nan 0
-nan -nan 0
-nan -nan 0
-nan -nan 0
-nan -nan 0
-nan -nan 0
-nan -nan 0
-nan -nan 0
-nan -nan 0
-nan -nan 0
-nan -nan 0
-nan -nan 0
-nan -nan 0
-nan -nan 0
-nan -nan 0
-nan -nan 0
-nan -nan 0
-nan -nan 0
-nan -nan 0
-nan -nan 0
-nan -nan 0
-nan -nan 0
-nan -nan 0
-nan -nan 0
-nan -nan 0
-nan -nan 0
-nan -nan 0
-nan -nan 0
-nan -nan 0
-nan -nan 0
-nan -nan 0
-nan -nan 0
-nan -nan 0
-nan -nan 0
-nan -nan 0
-nan -nan 0
-nan -nan 0
-nan -nan 0
-nan -nan 0
-nan -nan 0
-nan -nan 0
-nan -nan 0
-nan -nan 0
-nan -nan 0
-nan -nan 0
-nan -nan 0
-nan -nan 0
-nan -nan 0
-nan -nan 0
-nan -nan 0
-nan -nan 0
-nan -nan 0
-nan -nan 0
-nan -nan 0
-nan -nan 0
-nan -nan 0
-nan -nan 0
-nan -nan 0
-nan -nan 0
-nan -nan 0
-nan -nan 0
-nan -nan 0
-nan -nan 0
-nan -nan 0
-nan -nan 0
-nan -nan 0
-nan -nan 0
-nan -nan 0
-nan -nan 0
-nan -nan 0
-nan -nan 0
-nan -nan 0
-nan -nan 0
-nan -nan 0
-nan -nan 0
      </DataArray> 
      <DataArray type="Float64" NumberOfComponents="3" Name="MeshDisp" format="ascii">
0 0 0
0 0 0
0 0 0
1 0 0
1 0 0
0 0 0
0 0 0
0 0 0
0 0 0
0 0 0
0 0 0
0 0 0
0 0 0
0 0 0
0 0 0
0 0 0
0 0 0
0 0 0
0 0 0
0 0 0
0.08518455328011078 0 0
0.1122984203017568 0 0
0.1354305082921484 0 0
0.157274151168277 0 0
0.1783722371291876 0 0
0.1990305983851649 0 0
0.2193573022143128 0 0
0.2394577645529891 0 0
0.259398461341822 0 0
0.2792240312773139 0 0
0.2989638586694343 0 0
0.3186385317952667 0 0
0.3382641533371018 0 0
0.3578515789160432 0 0
0.3774090724516387 0 0
0.3969432191809772 0 0
0.41645888325672 0 0
0.4359599221090747 0 0
0.4554492883078375 0 0
0.4749293411795356 0 0
0.4944019128196506 0 0
0.5138684785927341 0 0
0.533330189636233 0 0
0.5527879842203066 0 0
0.5722426017871808 0 0
0.591694648137314 0 0
0.611144602735705 0 0
0.6305928593060647 0 0
0.6500397303738779 0 0
0.6694854740995407 0 0
0.688930297138903 0 0
0.7083743709687071 0 0
0.7278178329514309 0 0
0.7472607966899254 0 0
0.7667033532710359 0 0
0.7861455784995038 0 0
0.8055875328287245 0 0
0.8250292666832471 0 0
0.8444708212465569 0 0
0.8639122318006558 0 0
0.8833535261318458 0 0
0.9027947280586301 0 0
0.9222358581710322 0 0
0.9416769340164574 0 0
0.9611179724595716 0 0
0.9805589897640997 0 0
0.9999999999999999 0 0
1 0 0
1 0 0
1 0 0
1 0 0
1 0 0
0.9999999999999999 0 0
1 0 0
0.9999999999999999 0 0
0.9999999999999999 0 0
1 0 0
1 0 0
1 0 0
1 0 0
0.9806420884402175 0 0
0.9612842001979089 0 0
0.9419263500549617 0 0
0.9225685559900726 0 0
0.9032108380187452 0 0
0.8838532203740727 0 0
0.8644957345575214 0 0
0.8451384092998769 0 0
0.8257812956347231 0 0
0.8064244363142331 0 0
0.7870678940141895 0 0
0.7677117505001111 0 0
0.748356087989526 0 0
0.7290010318625247 0 0
0.7096467055554592 0 0
0.6902932990138569 0 0
0.6709409992063921 0 0
0.6515901009131658 0 0
0.6322408585498106 0 0
0.6128937411249851 0 0
0.5935491500778869 0 0
0.5742077630839491 0 0
0.5548702919432064 0 0
0.5355376233001284 0 0
0.5162108808980013 0 0
0.4968914689325867 0 0
0.4775810705662326 0 0
0.4582818313756463 0 0
0.4389964392910315 0 0
0.4197279466706671 0 0
0.4004802631500818 0 0
0.3812586576257838 0 0
0.362068389700857 0 0
0.3429177921726883 0 0
0.32381575725886 0 0
0.3047734915059506 0 0
0.2858047159422578 0 0
0.2669254099939469 0 0
0.2481558042824031 0 0
0.2295196628330156 0 0
0.2110464538691068 0 0
0.1927734761598325 0 0
0.1747368203256129 0 0
0.1569729147665075 0 0
0.1395183332490181 0 0
0.1224189627139931 0 0
0.1057210224373011 0 0
0.0895317175572342 0 0
0.07402260380007748 0 0
0.05945912393337201 0 0
0.04600899836335936 0 0
0.03394076158816958 0 0
0.02339199949774732 0 0
0.01514641718838352 0 0
0.008848521515975609 0 0
0.004531935610677674 0 0
0.001981236250637705 0 0
0.0005878936279172926 0 0
0 0 0
0 0 0
0 0 0
0 0 0
0 0 0
0 0 0
0 0 0
0 0 0
0 0 0
0 0 0
0 0 0
0 0 0
0 0 0
0 0 0
0 0 0
0 0 0
0 0 0
0 0 0
0.05386485254683324 0 0
0.06615668881273697 0 0
0.1661188621334371 0 0
0.8365126785107306 0 0
0.7580336896245995 0 0
0.6806166292052223 0 0
0.603220273760035 0 0
0.5268672077937634 0 0
0.4496071275532714 0 0
0.3716499396015209 0 0
0.295259761130552 0 0
-0.0001445570049953603 0 0
0.2294638239979808 0 0
0.7964610279893827 0 0
0.7180955735932386 0 0
0.6403170179977877 0 0
0.5625177864940727 0 0
0.4846702798374042 0 0
0.4067092930878198 0 0
0.3284661775561953 0 0
0.02991588003540338 0 0
0.06310963631977771 0 0
0.9815441165443622 0 0
0.03666368873648273 0 0
0.06052795525641898 0 0
0.03886126664694481 0 0
0.05772579857612721 0 0
0.874935855100527 0 0
0.03891786167499441 0 0
0.05472104999421951 0 0
0.07305822356842143 0 0
0.06852013052569114 0 0
0.08637643618500303 0 0
0.08101167940357415 0 0
0.0984045075858983 0 0
0.06481884105075518 0 0
0.01874863289683097 0 0
0.2202602169574374 0 0
0.09242684895070474 0 0
0.1095988824578323 0 0
0.8949695167082165 0 0
-0.0007367872012642383 0 0
0.1030230424139429 0 0
0.1201572525255753 0 0
0.0001557809714427023 0 0
-0.0009820134822179005 0 0
0.12707772732791 0 0
0.1375340421641816 0 0
0.1132582643266763 0 0
0.09647498626951159 0 0
0.9826138378320249 0 0
0.14504379786727 0 0
0.1553767383228078 0 0
0.02178514229946561 0 0
0.02364520853693957 0 0
0.1632432616540526 0 0
0.1735617773893141 0 0
0.1063283936400147 0 0
0.08999112664500541 0 0
0.1651651023404359 0 0
0.1836729559867461 0 0
0.1919902385858025 0 0
0.2020837661347909 0 0
0.2106535461082005 0 0
0.2206958183513759 0 0
0.2294177780231617 0 0
0.2394613478696238 0 0
0.2481286371089279 0 0
0.2583785065075109 0 0
0.2675153031086506 0 0
0.2774576307486594 0 0
0.2866600588632028 0 0
0.2965761618016737 0 0
0.3058622057236747 0 0
0.315751166305946 0 0
0.325103167868592 0 0
0.3349683820262506 0 0
0.3441942308658011 0 0
0.3542027244421675 0 0
0.3635627281217694 0 0
0.3735036262098894 0 0
0.3829915736249808 0 0
0.392828792568518 0 0
0.402352650773093 0 0
0.412165749831058 0 0
0.4217096563073753 0 0
0.4315129244820186 0 0
0.441074918355996 0 0
0.4508701641280869 0 0
0.4604472457195634 0 0
0.4702364368614875 0 0
0.4798256948642696 0 0
0.4896113168770692 0 0
0.499209119070342 0 0
0.5089907629737916 0 0
0.5185962844633838 0 0
0.5283740499370602 0 0
0.5379862745750041 0 0
0.5477612796704658 0 0
0.5573787109172731 0 0