<?xml version="1.0"?>
<VTKFile type="UnstructuredGrid">
  <UnstructuredGrid>
  <Piece NumberOfPoints="1224"  NumberOfCells="2290">
    <Points>
      <DataArray type="Float64" NumberOfComponents="3" format="ascii">
0 0 0
0.6 0 0
0.6 0.2 0
89 0.2 0
89 1 0
0 1 0
0.05454545454535233 0 0
0.1090909090906768 0 0
0.1636363636359771 0 0
0.2181818181812728 0 0
0.2727272727265793 0 0
0.3272727272720317 0 0
0.3818181818176247 0 0
0.4363636363632168 0 0
0.4909090909088285 0 0
0.5454545454544089 0 0
0.6 0.03999999999991203 0
0.6 0.07999999999979179 0
0.6 0.1199999999997886 0
0.6 0.1599999999998948 0
8.412665265765519 0.2 0
10.87238786117299 0.2 0
12.95309568548167 0.2 0
14.90949405284146 0.2 0
16.79042488778931 0.2 0
18.62428245697996 0.2 0
20.42445597984118 0.2 0
22.20143211447972 0.2 0
23.96174878097258 0.2 0
25.70978445420123 0.2 0
27.44861325076564 0.2 0
29.18043814169561 0.2 0
30.90688386763988 0.2 0
32.62917723025021 0.2 0
34.34821585014067 0.2 0
36.06468671673283 0.2 0
37.77912763680689 0.2 0
39.49195638807588 0.2 0
41.2034994718862 0.2 0
42.91401382540142 0.2 0
44.62370288012993 0.2 0
46.33272822115156 0.2 0
48.04121869746132 0.2 0
49.74927740205644 0.2 0
51.45698703691531 0.2 0
53.16441410751209 0.2 0
54.87161218142612 0.2 0
56.57862449073829 0.2 0
58.2854859601085 0.2 0
59.99222487393726 0.2 0
61.69886415056612 0.2 0
63.40542240394403 0.2 0
65.1119147426342 0.2 0
66.81835345678061 0.2 0
68.52474851264927 0.2 0
70.23110804169953 0.2 0
71.93743885504904 0.2 0
73.64374638103629 0.2 0
75.35003490956784 0.2 0
77.05630827285177 0.2 0
78.76256945643513 0.2 0
80.46882094639693 0.2 0
82.17506487745506 0.2 0
83.88130329957893 0.2 0
85.58753767473976 0.2 0
87.29376948376817 0.2 0
89 0.2533333333332341 0
89 0.3066666666664725 0
89 0.3599999999996274 0
89 0.413333333332804 0
89 0.4666666666659806 0
89 0.5199999999991571 0
89 0.5733333333323336 0
89 0.6266666666656895 0
89 0.6799999999991551 0
89 0.7333333333326146 0
89 0.7866666666660802 0
89 0.8399999999995775 0
89 0.8933333333330373 0
89 0.9466666666664969 0
87.30106258726454 1 0
85.60212653529453 1 0
83.90319317947213 1 0
82.20426402368997 1 0
80.50534066928283 1 0
78.80642495851963 1 0
77.10751922642123 1 0
75.40862576687375 1 0
73.70974823740825 1 0
72.01088996171995 1 0
70.31205563427082 1 0
68.61325120017878 1 0
66.91448296602412 1 0
65.21575998416492 1 0
63.51709172954233 1 0
61.81849185457595 1 0
60.11997455861096 1 0
58.42156104610242 1 0
56.72327141359195 1 0
55.02513835702241 1 0
53.32719320608675 1 0
51.62948386194414 1 0
49.93206327110454 1 0
48.23499657753496 1 0
46.53836630051846 1 0
44.8422743103796 1 0
43.1468447716541 1 0
41.45223310048125 1 0
39.75863470455902 1 0
38.06627423718533 1 0
36.37543666466321 1 0
34.68650677354628 1 0
32.99987755458163 1 0
31.31613242668518 1 0
29.6359216699175 1 0
27.96005717401674 1 0
26.28953662134025 1 0
24.62555262845788 1 0
22.96958230650375 1 0
21.32335274466582 1 0
19.6889334081811 1 0
18.0687858126204 1 0
16.465343430842 1 0
14.88103817840237 1 0
13.31826437064933 1 0
11.78043432438911 1 0
10.27211642701881 1 0
8.802951079798019 1 0
7.389666436858127 1 0
6.058563188943008 1 0
4.826929309709094 1 0
3.719625542354099 1 0
2.747584330120745 1 0
1.970464687318154 1 0
1.348886353811001 1 0
0.8739221256069529 1 0
0.5180990412463254 1 0
0.2355959081806042 1 0
0 0.9473684210524125 0
0 0.8947368421048248 0
0 0.8421052631576025 0
0 0.7894736842105994 0
0 0.7368421052635962 0
0 0.6842105263165927 0
0 0.6315789473695894 0
0 0.5789473684225861 0
0 0.5263157894755828 0
0 0.4736842105282874 0
0 0.4210526315806998 0
0 0.3684210526331123 0
0 0.3157894736855248 0
0 0.2631578947379374 0
0 0.21052631579035 0
0 0.1578947368427625 0
0 0.1052631578951749 0
0 0.05263157894758741 0
5.546535586292301 0.955462795473483 0
6.669725397434656 0.2394317949808221 0
15.69741195723651 0.9557759867023439 0
74.65158864618908 0.9559758769411787 0
67.76384776277175 0.9559648099769389 0
60.96918960725645 0.9559648099769389 0
54.17606761894012 0.9559648099772646 0
47.47386085664888 0.9560078743553572 0
40.6904680895853 0.9561420672712786 0
33.84206826005859 0.95627738856474 0
27.12236987713808 0.9563034567995272 0
0.1102862096228888 0.5498854761242812 0
21.31827576654625 0.2442383967812095 0
71.13644813288468 0.2421522008426663 0
64.25862361608014 0.243586373321511 0
57.43212207907878 0.24363095694403 0
50.60335923663807 0.2436741865527954 0
43.76928643219923 0.2437170671454607 0
36.92267822932881 0.2437587738062726 0
30.04508321060331 0.2442249255777628 0
3.346420064721438 0.2417757800606361 0
6.39088146072034 0.2785115072887754 0
87.38022875433943 0.5995349944823752 0
3.96509654700928 0.2791940688436214 0
6.154614391002807 0.3180386921514113 0
4.166848511357879 0.3181181454258206 0
5.898086340920181 0.3577335228902347 0
78.02379448990283 0.2416532643303031 0
4.172518350945817 0.3576683284772433 0
5.622942710398902 0.3976917483469583 0
7.301448949858551 0.3977458985417416 0
6.886611782848025 0.4382323507424581 0
8.516891359773416 0.4382172989803606 0
8.027698261864458 0.4790536480492864 0
9.610292313039826 0.4792447281197085 0
6.548101566591638 0.4817209888486334 0
2.312651296675551 0.9660670791366374 0
20.50449586761633 0.9559852449915113 0
9.067040551906686 0.5203953730037822 0
10.62422979790491 0.5205851219036783 0
79.78204365410252 0.9563165682871465 0
0.04531247014993967 0.2894490564426765 0
10.02861473300081 0.5622881188475496 0
11.57755411710072 0.5621981517123112 0
0.1452114910273063 0.7091098825652095 0
0.2621396254342007 0.04723774929726795 0
12.20115011587835 0.5200372393771872 0
13.14072737387081 0.562505099575485 0
10.95463095131898 0.6041261864689124 0
9.434476297942899 0.6041581669226386 0
87.47411227648705 0.4393531299125908 0
13.81426033982994 0.5199435586712576 0
14.73881574995143 0.5624873891767795 0
2.605978773379678 0.3174350849704655 0
2.775947303546109 0.3576870257641042 0
15.44144090738439 0.5195844107098163 0
16.3610852303949 0.5621174250913318 0
10.32767113323204 0.6460588488486728 0
8.845096101794356 0.6462390077748084 0
15.61266165809249 0.6067218912904607 0
17.26061580510718 0.6047738158182728 0
17.99954352902648 0.5617915498272615 0
18.89491001923001 0.6045430073239006 0
19.65422123497948 0.5614360364847856 0
20.54303911497105 0.6046345614192383 0
21.31431714654124 0.5613114208485291 0
22.20182047843883 0.604758732930365 0
22.96716139602184 0.5597386087889248 0
23.87168852647795 0.6042836632406788 0
24.67755233822546 0.5607219500906248 0
25.55403148668463 0.6043040651294929 0
26.36492290877144 0.5598592244124957 0
27.23831760366351 0.6040638744783449 0
28.0559223039964 0.5595216793632644 0
28.92631309106185 0.6038781229769293 0
29.74920206773078 0.5600604284234054 0
30.61701232631672 0.6038664424080111 0
31.42838504598969 0.55874807111347 0
32.30839299031968 0.6035341865995129 0
33.13122469982384 0.5586520846649797 0
34.00497884060056 0.6034054551655909 0
34.83879395460358 0.558835304845746 0
35.70318290916742 0.6032503772964327 0
36.53993525516406 0.5587079795953892 0
37.40200438578897 0.6030926920218221 0
38.24034355404607 0.5580480170404921 0
39.10138763192928 0.6028436706904448 0
39.94117310697696 0.5577680566445021 0
40.80138294382161 0.6026435181305781 0
41.6423798062089 0.5575726351194972 0
42.501953051267 0.6024617369905624 0
43.34392679778951 0.5573842056888257 0
44.20310216791008 0.6022873884346892 0
45.04575190297499 0.5572075399874397 0
45.90451019665762 0.6021111834258887 0
46.74777795228238 0.5570246051384745 0
47.60614118864812 0.6019307913070558 0
48.44994936445448 0.5568475628142857 0
49.30802638583447 0.6017522495250318 0
50.15225287753882 0.5566653603575672 0
51.01016969372573 0.601574020443024 0
51.8546681816324 0.5564884669211013 0
52.71239720275838 0.601395113412113 0
53.5571570587792 0.5563067813822595 0
54.41456540301344 0.6012129143420911 0
55.25968023230563 0.5561292537946573 0
56.11695719433921 0.601032757987411 0
56.96227300594533 0.5559477304122714 0
57.81961959397339 0.600855564813206 0
58.66493978870461 0.5557710179709322 0
59.52220641942498 0.6006760179252703 0
60.36762085530096 0.5555900146741853 0
61.22474874443746 0.6004921726308964 0
62.0703081843039 0.5554125217101814 0
62.92737523511359 0.6003111949874665 0
63.77301990082007 0.5552312296013228 0
64.62993498097551 0.6001298880828497 0
65.47574086628755 0.5550546947866846 0
66.33264240441255 0.599950595338254 0
67.1785640391137 0.5548708301001631 0
68.03559038913365 0.5997713467128002 0
68.88171817327313 0.5547000681173012 0
69.73894062834765 0.5996004731097838 0
70.58543762308908 0.5545095609010697 0
71.44271786721418 0.5994220729206983 0
72.29013437081434 0.5543494429014709 0
73.14705231285255 0.5993228147833797 0
73.99658028860985 0.5541346321759457 0
74.85576479237929 0.5992395038842441 0
75.70763807625279 0.5540180644105763 0
87.62822562810598 0.7598964409357507 0
76.57082177249421 0.5990918128353608 0
1.643960241129479 0.3159793431387367 0
1.833462845394908 0.357715436029677 0
1.058942629553694 0.3157219358498637 0
1.203055205144212 0.3576135465858128 0
70.59101266602087 0.643990885448769 0
63.78410829443224 0.6444881680698032 0
23.07198609835237 0.6487487015028032 0
56.97422063560808 0.6452136474256573 0
50.16570747620862 0.6459229900926835 0
0.6927089561138569 0.3150377509381005 0
0.79495106332765 0.3574251905568473 0
1.282284416149357 0.4002519798591844 0
43.36073494794522 0.6466170330762969 0
29.79455077959367 0.6479317947648683 0
36.56603501647215 0.6473399689389928 0
18.15117684820267 0.6483605753517908 0
9.711133366712511 0.6883083412871458 0
8.261298169500787 0.6885103796531055 0
77.42376925482633 0.5527758280498023 0
25.45787738290234 0.5148848291986879 0
75.71593537237871 0.6438096025956825 0
77.43417460439687 0.6437140715169269 0
33.95736072123849 0.5138574114565649 0
40.76956585386622 0.5115839513085039 0
47.58145506735901 0.5109012431757174 0
54.39395002540932 0.510388685431229 0
0.8521102731408524 0.4001745965167012 0
1.304334415824506 0.4433206937839571 0
61.20669695434258 0.5096846626216972 0
[...]
    <PointData>
      <DataArray type="Float64" NumberOfComponents="3" Name="Velocity" format="ascii">
-nan -nan 0
-nan -nan 0
-nan -nan 0
-nan -nan 0
-nan -nan 0
-nan -nan 0
-nan -nan 0
-nan -nan 0
-nan -nan 0
-nan -nan 0
-nan -nan 0
-nan -nan 0
-nan -nan 0
-nan -nan 0
-nan -nan 0
-nan -nan 0
-nan -nan 0
-nan -nan 0
-nan -nan 0
-nan -nan 0
-nan -nan 0
-nan -nan 0
-nan -nan 0
-nan -nan 0
-nan -nan 0
-nan -nan 0
-nan -nan 0
-nan -nan 0
-nan -nan 0
-nan -nan 0
-nan -nan 0
-nan -nan 0
-nan -nan 0
-nan -nan 0
-nan -nan 0
-nan -nan 0
-nan -nan 0
-nan -nan 0
-nan -nan 0
-nan -nan 0
-nan -nan 0
-nan -nan 0
-nan -nan 0
-nan -nan 0
-nan -nan 0
-nan -nan 0
-nan -nan 0
-nan -nan 0
-nan -nan 0
-nan -nan 0
-nan -nan 0
-nan -nan 0
-nan -nan 0
-nan -nan 0
-nan -nan 0
-nan -nan 0
-nan -nan 0
-nan -nan 0
-nan -nan 0
-nan -nan 0
-nan -nan 0
-nan -nan 0
-nan -nan 0
-nan -nan 0
-nan -nan 0
-nan -nan 0
-nan -nan 0
-nan -nan 0
-nan -nan 0
-nan -nan 0
-nan -nan 0
-nan -nan 0
-nan -nan 0
-nan -nan 0
-nan -nan 0
-nan -nan 0
-nan -nan 0
-nan -nan 0
-nan -nan 0
-nan -nan 0
-nan -nan 0
-nan -nan 0
-nan -nan 0
-nan -nan 0
-nan -nan 0
-nan -nan 0
-nan -nan 0
-nan -nan 0
-nan -nan 0
-nan -nan 0
-nan -nan 0
-nan -nan 0
-nan -nan 0
-nan -nan 0
-nan -nan 0
-nan -nan 0
-nan -nan 0
-nan -nan 0
-nan -nan 0
-nan -nan 0
-nan -nan 0
-nan -nan 0
-nan -nan 0
-nan -nan 0
-nan -nan 0
-nan -nan 0
-nan -nan 0
-nan -nan 0
-nan -nan 0
-nan -nan 0
-nan -nan 0
-nan -nan 0
-nan -nan 0
-nan -nan 0
-nan -nan 0
-nan -nan 0
-nan -nan 0
-nan -nan 0
-nan -nan 0
-nan -nan 0
-nan -nan 0
-nan -nan 0
-nan -nan 0
-nan -nan 0
-nan -nan 0
-nan -nan 0
-nan -nan 0
-nan -nan 0
-nan -nan 0
-nan -nan 0
-nan -nan 0
-nan -nan 0
-nan -nan 0
-nan -nan 0
-nan -nan 0
-nan -nan 0
-nan -nan 0
-nan -nan 0
-nan -nan 0
-nan -nan 0
-nan -nan 0
-nan -nan 0
-nan -nan 0
-nan -nan 0
-nan -nan 0
-nan -nan 0
-nan -nan 0
-nan -nan 0
-nan -nan 0
-nan -nan 0
-nan -nan 0
-nan -nan 0
-nan -nan 0
-nan -nan 0
-nan -nan 0
-nan -nan 0
-nan -nan 0
-nan -nan 0
-nan -nan 0
-nan -nan 0
-nan -nan 0
-nan -nan 0
-nan -nan 0
-nan -nan 0
-nan -nan 0
-nan -nan 0
-nan -nan 0
-nan -nan 0
-nan -nan 0
-nan -nan 0
-nan -nan 0
-nan -nan 0
-nan -nan 0
-nan -nan 0
-nan -nan 0
-nan -nan 0
-nan -nan 0
-nan -nan 0
-nan -nan 0
-nan -nan 0
-nan -nan 0
-nan -nan 0
-nan -nan 0
-nan -nan 0
-nan -nan 0
-nan -nan 0
-nan -nan 0
-nan -nan 0
-nan -nan 0
-nan -nan 0
-nan -nan 0
-nan -nan 0
-nan -nan 0
-nan -nan 0
-nan -nan 0
-nan -nan 0
-nan -nan 0
-nan -nan 0
-nan -nan 0
-nan -nan 0
-nan -nan 0
-nan -nan 0
-nan -nan 0
-nan -nan 0
-nan -nan 0
-nan -nan 0
-nan -nan 0
-nan -nan 0
-nan -nan 0
-nan -nan 0
-nan -nan 0
-nan -nan 0
-nan -nan 0
-nan -nan 0
-nan -nan 0
-nan -nan 0
-nan -nan 0
-nan -nan 0
-nan -nan 0
-nan -nan 0
-nan -nan 0
-nan -nan 0
-nan -nan 0
-nan -nan 0
-nan -nan 0
-nan -nan 0
-nan -nan 0
-nan -nan 0
-nan -nan 0
-nan -nan 0
-nan -nan 0
-nan -nan 0
-nan -nan 0
-nan -nan 0
-nan -nan 0
-nan -nan 0
-nan -nan 0
-nan -nan 0
-nan -nan 0
-nan -nan 0
-nan -nan 0
-nan -nan 0
-nan -nan 0
-nan -nan 0
-nan -nan 0
-nan -nan 0
-nan -nan 0
-nan -nan 0
-nan -nan 0
-nan -nan 0
-nan -nan 0
-nan -nan 0
-nan -nan 0
-nan -nan 0
-nan -nan 0
-nan -nan 0
-nan -nan 0
-nan -nan 0
-nan -nan 0
-nan -nan 0
-nan -nan 0
-nan -nan 0
-nan -nan 0
-nan -nan 0
-nan -nan 0
-nan -nan 0
-nan -nan 0
-nan -nan 0
-nan -nan 0
-nan -nan 0
-nan -nan 0
-nan -nan 0
-nan -nan 0
-nan -nan 0
-nan -nan 0
-nan -nan 0
-nan -nan 0
-nan -nan 0
-nan -nan 0
-nan -nan 0
-nan -nan 0
-nan -nan 0
-nan -nan 0
-nan -nan 0
-nan -nan 0
-nan -nan 0
-nan -nan 0
-nan -nan 0
-nan -nan 0
-nan -nan 0
-nan -nan 0
-nan -nan 0
-nan -nan 0
-nan -nan 0
-nan -nan 0
-nan -nan 0
-nan -nan 0
-nan -nan 0
-nan -nan 0
-nan -nan 0
-nan -nan 0
-nan -nan 0
-nan -nan 0
-nan -nan 0
-nan -nan 0
-nan -nan 0
-nan -nan 0
-nan -nan 0
-nan -nan 0
-nan -nan 0
-nan -nan 0
-nan -nan 0
-nan -nan 0
-nan -nan 0
-nan -nan 0
-nan -nan 0
-nan -nan 0
-nan -nan 0
-nan -nan 0
-nan -nan 0
-nan -nan 0
-nan -nan 0
-nan -nan 0
-nan -nan 0
-nan -nan 0
-nan -nan 0
-nan -nan 0
-nan -nan 0
-nan -nan 0
-nan -nan 0
-nan -nan 0
-nan -nan 0
-nan -nan 0
-nan -nan 0
-nan -nan 0
-nan -nan 0
-nan -nan 0
-nan -nan 0
-nan -nan 0
-nan -nan 0
-nan -nan 0
-nan -nan 0
-nan -nan 0
-nan -nan 0
-nan -nan 0
-nan -nan 0
-nan -nan 0
-nan -nan 0
-nan -nan 0
-nan -nan 0
-nan -nan 0
-nan -nan 0
-nan -nan 0
-nan -nan 0
-nan -nan 0
-nan -nan 0
-nan -nan 0
-nan -nan 0
-nan -nan 0
-nan -nan 0
-nan -nan 0
-nan -nan 0
-nan -nan 0
-nan -nan 0
-nan -nan 0
-nan -nan 0
-nan -nan 0
-nan -nan 0
-nan -nan 0
-nan -nan 0
-nan -nan 0
-nan -nan 0
-nan -nan 0
-nan -nan 0
-nan -nan 0
-nan -nan 0
-nan -nan 0
-nan -nan 0
-nan -nan 0
-nan -nan 0
-nan -nan 0
-nan -nan 0
-nan -nan 0
-nan -nan 0
-nan -nan 0
-nan -nan 0
-nan -nan 0
-nan -nan 0
-nan -nan 0
-nan -nan 0
-nan -nan 0
-nan -nan 0
-nan -nan 0
-nan -nan 0
-nan -nan 0
-nan -nan 0
-nan -nan 0
-nan -nan 0
-nan -nan 0
-nan -nan 0
-nan -nan 0
-nan -nan 0
-nan -nan 0
-nan -nan 0
-nan -nan 0
-nan -nan 0
-nan -nan 0
-nan -nan 0
-nan -nan 0
-nan -nan 0
-nan -nan 0
-nan -nan 0
-nan -nan 0
-nan -nan 0
-nan -nan 0
-nan -nan 0
-nan -nan 0
-nan -nan 0
-nan -nan 0
-nan -nan 0
-nan -nan 0
-nan -nan 0
-nan -nan 0
-nan -nan 0
-nan -nan 0
-nan -nan 0
-nan -nan 0
-nan -nan 0
-nan -nan 0
-nan -nan 0
-nan -nan 0
-nan -nan 0
-nan -nan 0
-nan -nan 0
-nan -nan 0
-nan -nan 0
-nan -nan 0
-nan -nan 0
-nan -nan 0
-nan -nan 0
-nan -nan 0
-nan -nan 0
-nan -nan 0
-nan -nan 0
-nan -nan 0
-nan -nan 0
-nan -nan 0
-nan -nan 0
-nan -nan 0
-nan -nan 0
-nan -nan 0
-nan -nan 0
-nan -nan 0
-nan -nan 0
-nan -nan 0
-nan -nan 0
-nan -nan 0
-nan -nan 0
-nan -nan 0
-nan -nan 0
-nan -nan 0
-nan -nan 0
-nan -nan 0
-nan -nan 0
-nan -nan 0
-nan -nan 0
-nan -nan 0
-nan -nan 0
-nan -nan 0
-nan -nan 0
-nan -nan 0
-nan -nan 0
-nan -nan 0
-nan -nan 0
-nan -nan 0
-nan -nan 0
-nan -nan 0
-nan -nan 0
-nan -nan 0
-nan -nan 0
-nan -nan 0
-nan -nan 0
-nan -nan 0
-nan -nan 0
-nan -nan 0
-nan -nan 0
-nan -nan 0
-nan -nan 0
-nan -nan 0
-nan -nan 0
-nan -nan 0
-nan -nan 0
-nan -nan 0
-nan -nan 0
-nan -nan 0
-nan -nan 0
-nan -nan 0
-nan -nan 0
-nan -nan 0
-nan -nan 0
-nan -nan 0
-nan -nan 0
-nan -nan 0
-nan -nan 0
-nan -nan 0
-nan -nan 0
-nan -nan 0
-nan -nan 0
-nan -nan 0
-nan -nan 0
-nan -nan 0
-nan -nan 0
-nan -nan 0
-nan -nan 0
-nan -nan 0
-nan -nan 0
-nan -nan 0
-nan -nan 0
-nan -nan 0
-nan -nan 0
-nan -nan 0
-nan -nan 0
-nan -nan 0
-nan -nan 0
-nan -nan 0
-nan -nan 0
-nan -nan 0
-nan -nan 0
-nan -nan 0
-nan -nan 0
-nan -nan 0
-nan -nan 0
-nan -nan 0
-nan -nan 0
-nan -nan 0
-nan -nan 0
-nan -nan 0
-nan -nan 0
-nan -nan 0
-nan -nan 0
-nan -nan 0
-nan -nan 0
-nan -nan 0
-nan -nan 0
-nan -nan 0
-nan -nan 0
-nan -nan 0
-nan -nan 0
-nan -nan 0
-nan -nan 0
-nan -nan 0
-nan -nan 0
-nan -nan 0
-nan -nan 0
-nan -nan 0
-nan -nan 0
-nan -nan 0
-nan -nan 0
-nan -nan 0
-nan -nan 0
-nan -nan 0
-nan -nan 0
-nan -nan 0
-nan -nan 0
-nan -nan 0
-nan -nan 0
-nan -nan 0
-nan -nan 0
-nan -nan 0
-nan -nan 0
-nan -nan 0
-nan -nan 0
-nan -nan 0
-nan -nan 0
-nan -nan 0
-nan -nan 0
-nan -nan 0
-nan -nan 0
-nan -nan 0
-nan -nan 0
-nan -nan 0
-nan -nan 0
-nan -nan 0
-nan -nan 0
-nan -nan 0
-nan -nan 0
-nan -nan 0
-nan -nan 0
-nan -nan 0
-nan -nan 0
-nan -nan 0
-nan -nan 0
-nan -nan 0
-nan -nan 0
-nan -nan 0
-nan -nan 0
-nan -nan 0
-nan -nan 0
-nan -nan 0
-nan -nan 0
-nan -nan 0
-nan -nan 0
-nan -nan 0
-nan -nan 0
-nan -nan 0
-nan -nan 0
-nan -nan 0
-nan -nan 0
-nan -nan 0
-nan -nan 0
-nan -nan 0
-nan -nan 0
-nan -nan 0
-nan -nan 0
-nan -nan 0
-nan -nan 0
-nan -nan 0
-nan -nan 0
-nan -nan 0
-nan -nan 0
-nan -nan 0
-nan -nan 0
-nan -nan 0
-nan -nan 0
-nan -nan 0
-nan -nan 0
-nan -nan 0
-nan -nan 0
-nan -nan 0
-nan -nan 0
-nan -nan 0
-nan -nan 0
-nan -nan 0
-nan -nan 0
-nan -nan 0
-nan -nan 0
-nan -nan 0
-nan -nan 0
-nan -nan 0
-nan -nan 0
-nan -nan 0
-nan -nan 0
-nan -nan 0
-nan -nan 0
-nan -nan 0
-nan -nan 0
-nan -nan 0
-nan -nan 0
-nan -nan 0
-nan -nan 0
-nan -nan 0
-nan -nan 0
-nan -nan 0
-nan -nan 0
-nan -nan 0
-nan -nan 0
-nan -nan 0
-nan -nan 0
-nan -nan 0
-nan -nan 0
-nan -nan 0
-nan -nan 0
-nan -nan 0
-nan -nan 0
-nan -nan 0
-nan -nan 0
-nan -nan 0
-nan -nan 0
-nan -nan 0
-nan -nan 0
-nan -nan 0
-nan -nan 0
-nan -nan 0
-nan -nan 0
-nan -nan 0
-nan -nan 0
-nan -nan 0
-nan -nan 0
-nan -nan 0
-nan -nan 0
-nan -nan 0
-nan -nan 0
-nan -nan 0
-nan -nan 0
-nan -nan 0
-nan -nan 0
-nan -nan 0
-nan -nan 0
-nan -nan 0
-nan -nan 0
-nan -nan 0
-nan -nan 0
-nan -nan 0
-nan -nan 0
-nan -nan 0
-nan -nan 0
-nan -nan 0
-nan -nan 0
-nan -nan 0
-nan -nan 0
-nan -nan 0
-nan -nan 0
-nan -nan 0
-nan -nan 0
-nan -nan 0
-nan -nan 0
-nan -nan 0
-nan -nan 0
-nan -nan 0
-nan -nan 0
-nan -nan 0
-nan -nan 0
-nan -nan 0
-nan -nan 0
-nan -nan 0
-nan -nan 0
-nan -nan 0
-nan -nan 0
-nan -nan 0
-nan -nan 0
-nan -nan 0
-nan -nan 0
-nan -nan 0
-nan -nan 0
-nan -nan 0
-nan -nan 0
-nan -nan 0
-nan -nan 0
-nan -nan 0
-nan -nan 0
-nan -nan 0
-nan -nan 0
-nan -nan 0
-nan -nan 0
-nan -nan 0
-nan -nan 0
-nan -nan 0
-nan -nan 0
-nan -nan 0
-nan -nan 0
-nan -nan 0
-nan -nan 0
-nan -nan 0
-nan -nan 0
-nan -nan 0
-nan -nan 0
-nan -nan 0
-nan -nan 0
-nan -nan 0
-nan -nan 0
-nan -nan 0
-nan -nan 0
-nan -nan 0
-nan -nan 0
-nan -nan 0
-nan -nan 0
-nan -nan 0
-nan -nan 0
-nan -nan 0
-nan -nan 0
-nan -nan 0
-nan -nan 0
-nan -nan 0
-nan -nan 0
-nan -nan 0
-nan -nan 0
-nan -nan 0
-nan -nan 0
-nan -nan 0
-nan -nan 0
-nan -nan 0
-nan -nan 0
-nan -nan 0
-nan -nan 0
-nan -nan 0
-nan -nan 0
-nan -nan 0
-nan -nan 0
-nan -nan 0
-nan -nan 0
-nan -nan 0
-nan -nan 0
-nan -nan 0
-nan -nan 0
-nan -nan 0
-nan -nan 0
-nan -nan 0
-nan -nan 0
-nan -nan 0
-nan -nan 0
-nan -nan 0
-nan -nan 0
-nan -nan 0
-nan -nan 0
-nan -nan 0
-nan -nan 0
-nan -nan 0
-nan -nan 0
-nan -nan 0
-nan -nan 0
-nan -nan 0
-nan -nan 0
-nan -nan 0
-nan -nan 0
-nan -nan 0
-nan -nan 0
-nan -nan 0
-nan -nan 0
-nan -nan 0
-nan -nan 0
-nan -nan 0
-nan -nan 0
-nan -nan 0
-nan -nan 0
-nan -nan 0
-nan -nan 0
-nan -nan 0
-nan -nan 0
-nan -nan 0
-nan -nan 0
-nan -nan 0
-nan -nan 0
-nan -nan 0
-nan -nan 0
-nan -nan 0
-nan -nan 0
-nan -nan 0
-nan -nan 0
-nan -nan 0
-nan -nan 0
-nan -nan 0
-nan -nan 0
-nan -nan 0
-nan -nan 0
-nan -nan 0
-nan -nan 0
-nan -nan 0
-nan -nan 0
-nan -nan 0
-nan -nan 0
-nan -nan 0
-nan -nan 0
-nan -nan 0
-nan -nan 0
-nan -nan 0
-nan -nan 0
-nan -nan 0
-nan -nan 0
-nan -nan 0
-nan -nan 0
-nan -nan 0
-nan -nan 0
-nan -nan 0
-nan -nan 0
-nan -nan 0
-nan -nan 0
-nan -nan 0
-nan -nan 0
-nan -nan 0
-nan -nan 0
-nan -nan 0
-nan -nan 0
-nan -nan 0
-nan -nan 0
-nan -nan 0
-nan -nan 0
-nan -nan 0
-nan -nan 0
-nan -nan 0
-nan -nan 0
-nan -nan 0
-nan -nan 0
-nan -nan 0
-nan -nan 0
-nan -nan 0
-nan -nan 0
-nan -nan 0
-nan -nan 0
-nan -nan 0
-nan -nan 0
-nan -nan 0
-nan -nan 0
-nan -nan 0
-nan -nan 0
-nan -nan 0
-nan -nan 0
-nan -nan 0
-nan -nan 0
-nan -nan 0
-nan -nan 0
-nan -nan 0
-nan -nan 0
-nan -nan 0
-nan -nan 0
-nan -nan 0
-nan -nan 0
-nan -nan 0
-nan -nan 0
-nan -nan 0
-nan -nan 0
-nan -nan 0
-nan -nan 0
-nan -nan 0
-nan -nan 0
-nan -nan 0
-nan -nan 0
-nan -nan 0
-nan -nan 0
-nan -nan 0
-nan -nan 0
-nan -nan 0
-nan -nan 0
-nan -nan 0
-nan -nan 0
-nan -nan 0
-nan -nan 0
-nan -nan 0
-nan -nan 0
-nan -nan 0
-nan -nan 0
-nan -nan 0
-nan -nan 0
-nan -nan 0
-nan -nan 0
-nan -nan 0
-nan -nan 0
-nan -nan 0
-nan -nan 0
-nan -nan 0
-nan -nan 0
-nan -nan 0
-nan -nan 0
-nan -nan 0
-nan -nan 0
-nan -nan 0
-nan -nan 0
-nan -nan 0
-nan -nan 0
-nan -nan 0
-nan -nan 0
-nan -nan 0
-nan -nan 0
-nan -nan 0
-nan -nan 0
-nan -nan 0
-nan -nan 0
-nan -nan 0
-nan -nan 0
-nan -nan 0
-nan -nan 0
-nan -nan 0
-nan -nan 0
-nan -nan 0
-nan -nan 0
-nan -nan 0
-nan -nan 0
-nan -nan 0
-nan -nan 0
-nan -nan 0
-nan -nan 0
-nan -nan 0
-nan -nan 0
-nan -nan 0
-nan -nan 0
-nan -nan 0
-nan -nan 0
-nan -nan 0
-nan -nan 0
-nan -nan 0
-nan -nan 0
-nan -nan 0
-nan -nan 0
-nan -nan 0
-nan -nan 0
-nan -nan 0
-nan -nan 0
-nan -nan 0
-nan -nan 0
-nan -nan 0
-nan -nan 0
-nan -nan 0
-nan -nan 0
-nan -nan 0
-nan -nan 0
-nan -nan 0
-nan -nan 0
-nan -nan 0
-nan -nan 0
-nan -nan 0
-nan -nan 0
-nan -nan 0
-nan -nan 0
-nan -nan 0
-nan -nan 0
-nan -nan 0
-nan -nan 0
-nan -nan 0
-nan -nan 0
-nan -nan 0
-nan -nan 0
-nan -nan 0
-nan -nan 0
-nan -nan 0
-nan -nan 0
-nan -nan 0
-nan -nan 0
-nan -nan 0
-nan -nan 0
-nan -nan 0
-nan -nan 0
-nan -nan 0
-nan -nan 0
-nan -nan 0
-nan -nan 0
-nan -nan 0
-nan -nan 0
-nan -nan 0
-nan -nan 0
-nan -nan 0
-nan -nan 0
-nan -nan 0
-nan -nan 0
-nan -nan 0
-nan -nan 0
-nan -nan 0
-nan -nan 0
-nan -nan 0
-nan -nan 0
-nan -nan 0
-nan -nan 0
-nan -nan 0
-nan -nan 0
-nan -nan 0
-nan -nan 0
-nan -nan 0
-nan -nan 0
-nan -nan 0
-nan -nan 0
-nan -nan 0
-nan -nan 0
-nan -nan 0
-nan -nan 0
-nan -nan 0
-nan -nan 0
-nan -nan 0
-nan -nan 0
-nan -nan 0
-nan -nan 0
-nan -nan 0
-nan -nan 0
-nan -nan 0
-nan -nan 0
-nan -nan 0
-nan -nan 0
-nan -nan 0
-nan -nan 0
-nan -nan 0
-nan -nan 0
-nan -nan 0
-nan -nan 0
-nan -nan 0
-nan -nan 0
-nan -nan 0
-nan -nan 0
-nan -nan 0
-nan -nan 0
-nan -nan 0
-nan -nan 0
-nan -nan 0
-nan -nan 0
-nan -nan 0
-nan -nan 0
-nan -nan 0
-nan -nan 0
-nan -nan 0
-nan -nan 0
-nan -nan 0
-nan -nan 0
-nan -nan 0
-nan -nan 0
-nan -nan 0
-nan -nan 0
-nan -nan 0
-nan -nan 0
-nan -nan 0
-nan -nan 0
-nan -nan 0
-nan -nan 0
-nan -nan 0
-nan -nan 0
-nan -nan 0
-nan -nan 0
-nan -nan 0
-nan -nan 0
-nan -nan 0
-nan -nan 0
-nan -nan 0
-nan -nan 0
-nan -nan 0
-nan -nan 0
-nan -nan 0
-nan -nan 0
-nan -nan 0
-nan -nan 0
-nan -nan 0
-nan -nan 0
-nan -nan 0
-nan -nan 0
-nan -nan 0
-nan -nan 0
-nan -nan 0
-nan -nan 0
-nan -nan 0
-nan -nan 0
-nan -nan 0
-nan -nan 0
-nan -nan 0
-nan -nan 0
-nan -nan 0
-nan -nan 0
-nan -nan 0
-nan -nan 0
-nan -nan 0
-nan -nan 0
-nan -nan 0
-nan -nan 0
-nan -nan 0
-nan -nan 0
-nan -nan 0
-nan -nan 0
-nan -nan 0
-nan -nan 0
-nan -nan 0
-nan -nan 0
-nan -nan 0
-nan -nan 0
-nan -nan 0
-nan -nan 0
-nan -nan 0
-nan -nan 0
-nan -nan 0
-nan -nan 0
-nan -nan 0
-nan -nan 0
-nan -nan 0
-nan -nan 0
-nan -nan 0
-nan -nan 0
-nan -nan 0
-nan -nan 0
-nan -nan 0
-nan -nan 0
-nan -nan 0
-nan -nan 0
-nan -nan 0
-nan -nan 0
-nan -nan 0
-nan -nan 0
-nan -nan 0
-nan -nan 0
-nan -nan 0
-nan -nan 0
-nan -nan 0
-nan -nan 0
-nan -nan 0
-nan -nan 0
-nan -nan 0
-nan -nan 0
-nan -nan 0
-nan -nan 0
-nan -nan 0
-nan -nan 0
-nan -nan 0
-nan -nan 0
-nan -nan 0
-nan -nan 0
-nan -nan 0
-nan -nan 0
-nan -nan 0
-nan -nan 0
-nan -nan 0
-nan -nan 0
-nan -nan 0
-nan -nan 0
-nan -nan 0
-nan -nan 0
-nan -nan 0
-nan -nan 0
-nan -nan 0
-nan -nan 0
-nan -nan 0
-nan -nan 0
-nan -nan 0
-nan -nan 0
-nan -nan 0
-nan -nan 0
-nan -nan 0
-nan -nan 0
-nan -nan 0
-nan -nan 0
-nan -nan 0
-nan -nan 0
-nan -nan 0
-nan -nan 0
-nan -nan 0
-nan -nan 0
-nan -nan 0
-nan -nan 0
-nan -nan 0
-nan -nan 0
-nan -nan 0
-nan -nan 0
-nan -nan 0
-nan -nan 0
-nan -nan 0
-nan -nan 0
-nan -nan 0
-nan -nan 0
-nan -nan 0
-nan -nan 0
-nan -nan 0
-nan -nan 0
-nan -nan 0
-nan -nan 0
      </DataArray> 
      <DataArray type="Float64" NumberOfComponents="3" Name="MeshDisp" format="ascii">
0 0 0
0 0 0
0 0 0
1 0 0
1 0 0
0 0 0
0 0 0
0 0 0
0 0 0
0 0 0
0 0 0
0 0 0
0 0 0
0 0 0
0 0 0
0 0 0
0 0 0
0 0 0
0 0 0
0 0 0
0.08536423789025721 0 0
0.1125128471852739 0 0
0.135661177399425 0 0
0.1575144118263223 0 0
0.1786163853965034 0 0
0.1992741431927285 0 0
0.2195981918581237 0 0
0.2396946334864984 0 0
0.2596303446654743 0 0
0.2794502415754741 0 0
0.2991839598585289 0 0
0.31885227393792 0 0
0.3384713893453478 0 0
0.358052244212937 0 0
0.3776031531651375 0 0
0.3971307312009036 0 0
0.4166398640444907 0 0
0.4361344205288004 0 0
0.4556173592639713 0 0
0.4750910412376551 0 0
0.4945572975197975 0 0
0.5140176007824445 0 0
0.5334730982192624 0 0
0.5529247239679413 0 0
0.5723732128805822 0 0
0.5918191665202952 0 0
0.6112630599937986 0 0
0.6307052831871246 0 0
0.6501461448472036 0 0
0.6695858999583554 0 0
0.6890247521967012 0 0
0.7084628705994261 0 0
0.7279003902466726 0 0
0.7473374228541372 0 0
0.7667740577899015 0 0
0.7862103694832345 0 0
0.8056464168025884 0 0
0.8250822490711336 0 0
0.8445179067320087 0 0
0.8639534241507947 0 0
0.8833888284038186 0 0
0.902824142780609 0 0
0.9222593874056052 0 0
0.9416945790197825 0 0
0.9611297345503343 0 0
0.980564870196333 0 0
0.9999999999999999 0 0
1 0 0
1 0 0
0.9999999999999999 0 0
1 0 0
1 0 0
1 0 0
1 0 0
1 0 0
1 0 0
1 0 0
1 0 0
1 0 0
1 0 0
0.9806479437577187 0 0
0.9612959120670441 0 0
0.9419439196057403 0 0
0.9225919844399445 0 0
0.9032401268026752 0 0
0.8838883713466135 0 0
0.8645367501878591 0 0
0.8451852923220811 0 0
0.8258340498885013 0 0
0.8064830660816531 0 0
0.7871324044960847 0 0
0.7677821482337522 0 0
0.7484323803259164 0 0
0.7290832280428352 0 0
0.709734815836237 0 0
0.6903873361864917 0 0
0.6710409774482473 0 0
0.6516960377319321 0 0
0.6323527721383241 0 0
0.6130116550660241 0 0
0.5936730889412596 0 0
0.5743377570508588 0 0
0.5550063741332983 0 0
0.5356798302252821 0 0
0.5163592528790711 0 0
0.4970460501153963 0 0
0.4777419074418686 0 0
0.4584489724499125 0 0
0.4391699332555863 0 0
0.41990783757895 0 0
0.4006665885405978 0 0
0.3814514425659927 0 0
0.3622676361352372 0 0
0.3431234698113631 0 0
0.3240277845601479 0 0
0.3049917170523854 0 0
0.286028892261066 0 0
0.2671551718917092 0 0
0.2483906100799133 0 0
0.2297587348616242 0 0
0.2112886598879617 0 0
0.1930171284192266 0 0
0.1749796385670502 0 0
0.1572119233749213 0 0
0.1397497363650361 0 0
0.122638196517739 0 0
0.1059235396066883 0 0
0.08971278411046897 0 0
0.07417833471509201 0 0
0.05958760163608836 0 0
0.04611035174929862 0 0
0.03401635685628881 0 0
0.02344337850898678 0 0
0.01517503763342729 0 0
0.008856132075245625 0 0
0.004522930037952884 0 0
0.00196483380843061 0 0
0.0005743238554353247 0 0
0 0 0
0 0 0
0 0 0
0 0 0
0 0 0
0 0 0
0 0 0
0 0 0
0 0 0
0 0 0
0 0 0
0 0 0
0 0 0
0 0 0
0 0 0
0 0 0
0 0 0
0 0 0
0.05398224588599252 0 0
0.06629812531307716 0 0
0.1663602449756335 0 0
0.836562177317386 0 0
0.758107033716142 0 0
0.6807136351074013 0 0
0.6033411971474687 0 0
0.5270121751843746 0 0
0.4497771197265204 0 0
0.3718459596661585 0 0
0.2954810065162998 0 0
-0.0001510955623503992 0 0
0.22970283964732 0 0
0.7965226840680518 0 0
0.7181811006762115 0 0
0.6404264341190234 0 0
0.5626514563259944 0 0
0.4848288139391484 0 0
0.4068935316746785 0 0
0.328676675983046 0 0
0.02998159397085419 0 0
0.0632449995363782 0 0
0.9815496987962533 0 0
0.03674291554118109 0 0
0.06065816608819708 0 0
0.0389450213829222 0 0
0.0578503493883558 0 0
0.8749737073505933 0 0
0.03900198843429047 0 0
0.05483947033917145 0 0
0.07321269818465373 0 0
0.06866607704593659 0 0
0.08655392504276227 0 0
0.0811801355866808 0 0
0.09859931740008952 0 0
0.06495765476390966 0 0
0.01878766069770126 0 0
0.2205010276580198 0 0
0.09261308802737622 0 0
0.1098069225757989 0 0
0.8950013009985667 0 0
-0.00075449898089263 0 0
0.1032232360313735 0 0
0.120375474469253 0 0
0.0001470462008954503 0 0
-0.0009899101542645797 0 0
0.1273017503140602 0 0
0.1377648294033471 0 0
0.113469759786983 0 0
0.09666655468533859 0 0
0.9826190965715353 0 0
0.1452786150303899 0 0
0.1556155796545637 0 0
0.02183932153839329 0 0
0.02370239389963293 0 0
0.1634844082428364 0 0
0.1738047055196082 0 0
0.106532185118023 0 0
0.09017330338461771 0 0
0.1654065164778281 0 0
0.1839166918240751 0 0
0.1922340887354849 0 0
0.2023270211247465 0 0
0.2108958535991471 0 0
0.2209365581679688 0 0
0.2296568539694651 0 0
0.2396982421433522 0 0
0.2483634355193799 0 0
0.2586106276626906 0 0
0.2677448925742038 0 0
0.2776843314737273 0 0
0.2868839868469633 0 0
0.2967970021348314 0 0
0.3060800904407196 0 0
0.3159658440744912 0 0
0.325314773950173 0 0
0.3351767148724123 0 0
0.344399481883336 0 0
0.3544046164673073 0 0
0.3637614708487596 0 0
0.3736990213198749 0 0
0.3831837744497633 0 0
0.3930176858540322 0 0
0.4025383484815728 0 0
0.4123481638085151 0 0
0.4218888867779127 0 0
0.4316888967570855 0 0
0.4412477248376809 0 0
0.4510397405172752 0 0
0.460613676976651 0 0
0.4703996668288501 0 0
0.4799858020599312 0 0
0.4897682505487998 0 0
0.4993629527809886 0 0
0.5091414498787596 0 0
0.5187438931099874 0 0
0.5285185367603219 0 0
0.5381277033527653 0 0
0.5478996092763949 0 0
0.5575140012206872 0 0
0.5672845035018801 0 0