<?xml version="1.0"?>
<VTKFile type="UnstructuredGrid">
  <UnstructuredGrid>
  <Piece NumberOfPoints="1224"  NumberOfCells="2290">
    <Points>
      <DataArray type="Float64" NumberOfComponents="3" format="ascii">
0 0 0
0.6 0 0
0.6 0.2 0
3 0.2 0
3 1 0
0 1 0
0.05454545454535233 0 0
0.1090909090906768 0 0
0.1636363636359771 0 0
0.2181818181812728 0 0
0.2727272727265793 0 0
0.3272727272720317 0 0
0.3818181818176247 0 0
0.4363636363632168 0 0
0.4909090909088285 0 0
0.5454545454544089 0 0
0.6 0.03999999999991203 0
0.6 0.07999999999979179 0
0.6 0.1199999999997886 0
0.6 0.1599999999998948 0
0.6510638297871261 0.2 0
0.7021276595742618 0.2 0
0.7531914893613819 0.2 0
0.8042553191485237 0.2 0
0.8553191489356438 0.2 0
0.9063829787228289 0.2 0
0.957446808509926 0.2 0
1.008510638297009 0.2 0
1.059574468084092 0.2 0
1.110638297871174 0.2 0
1.161702127658257 0.2 0
1.21276595744534 0.2 0
1.263829787232422 0.2 0
1.314893617019505 0.2 0
1.365957446806588 0.2 0
1.417021276593671 0.2 0
1.468085106380754 0.2 0
1.519148936167923 0.2 0
1.570212765955006 0.2 0
1.621276595742088 0.2 0
1.672340425529171 0.2 0
1.723404255316254 0.2 0
1.774468085103337 0.2 0
1.825531914890624 0.2 0
1.876595744677951 0.2 0
1.927659574465349 0.2 0
1.978723404252714 0.2 0
2.029787234040074 0.2 0
2.080851063827477 0.2 0
2.131914893614798 0.2 0
2.182978723402204 0.2 0
2.234042553189523 0.2 0
2.285106382976928 0.2 0
2.336170212764247 0.2 0
2.387234042551653 0.2 0
2.438297872338975 0.2 0
2.489361702126377 0.2 0
2.540425531913739 0.2 0
2.591489361701102 0.2 0
2.642553191488421 0.2 0
2.693617021275827 0.2 0
2.744680851063146 0.2 0
2.795744680850551 0.2 0
2.84680851063787 0.2 0
2.897872340425276 0.2 0
2.948936170212618 0.2 0
3 0.2533333333332341 0
3 0.3066666666664725 0
3 0.3599999999996274 0
3 0.413333333332804 0
3 0.4666666666659806 0
3 0.5199999999991571 0
3 0.5733333333323336 0
3 0.6266666666656895 0
3 0.6799999999991551 0
3 0.7333333333326146 0
3 0.7866666666660802 0
3 0.8399999999995775 0
3 0.8933333333330373 0
3 0.9466666666664969 0
2.949152542373491 1 0
2.898305084746983 1 0
2.847457627120474 1 0
2.796610169493702 1 0
2.745762711866469 1 0
2.694915254239208 1 0
2.644067796611963 1 0
2.593220338985156 1 0
2.542372881358647 1 0
2.491525423732018 1 0
2.44067796610481 1 0
2.389830508477549 1 0
2.338983050850287 1 0
2.288135593223026 1 0
2.237288135595765 1 0
2.186440677968504 1 0
2.135593220341243 1 0
2.084745762713982 1 0
2.033898305086721 1 0
1.983050847459614 1 0
1.932203389832729 1 0
1.881355932205844 1 0
1.830508474578958 1 0
1.779661016952073 1 0
1.728813559325189 1 0
1.677966101698303 1 0
1.627118644071418 1 0
1.576271186444533 1 0
1.525423728817648 1 0
1.474576271190575 1 0
1.423728813563314 1 0
1.372881355936053 1 0
1.322033898308791 1 0
1.27118644068153 1 0
1.220338983054269 1 0
1.169491525427008 1 0
1.118644067799747 1 0
1.067796610172485 1 0
1.016949152545224 1 0
0.9661016949179628 1 0
0.9152542372907018 1 0
0.8644067796634407 1 0
0.8135593220361792 1 0
0.7627118644089181 1 0
0.7118644067816566 1 0
0.661016949154396 1 0
0.6101694915271345 1 0
0.5593220338998739 1 0
0.5084745762726124 1 0
0.4576271186453518 1 0
0.4067796610180903 1 0
0.3559322033908292 1 0
0.3050847457635677 1 0
0.2542372881363066 1 0
0.2033898305090456 1 0
0.1525423728817841 1 0
0.101694915254523 1 0
0.05084745762726151 1 0
0 0.9473684210524125 0
0 0.8947368421048248 0
0 0.8421052631576025 0
0 0.7894736842105994 0
0 0.7368421052635962 0
0 0.6842105263165927 0
0 0.6315789473695894 0
0 0.5789473684225861 0
0 0.5263157894755828 0
0 0.4736842105282874 0
0 0.4210526315806998 0
0 0.3684210526331123 0
0 0.3157894736855248 0
0 0.2631578947379374 0
0 0.21052631579035 0
0 0.1578947368427625 0
0 0.1052631578951749 0
0 0.05263157894758741 0
0.4374856279758046 0.955462795473483 0
0.625531914893563 0.2394317949808221 0
0.7891616249544176 0.9557759867023439 0
2.570562443351098 0.9559758769411787 0
2.364406779663917 0.9559648099769389 0
2.161016949154874 0.9559648099769389 0
1.957627118646171 0.9559648099772646 0
1.756856606547665 0.9560078743553572 0
1.553415402058453 0.9561420672712786 0
1.347457627122422 0.95627738856474 0
1.144067796613377 0.9563034567995272 0
0.04146670856173688 0.5498854761242812 0
0.9828861012149002 0.2442383967812095 0
2.465390809289578 0.2421522008426663 0
2.259572257543314 0.243586373321511 0
2.055319178697841 0.24363095694403 0
1.851066099915384 0.2436741865527954 0
1.646810778591931 0.2437170671454607 0
1.442550972205278 0.2437587738062726 0
1.238275543433999 0.2442249255777628 0
0.5808319854219957 0.2417757800606361 0
0.6039807146029165 0.2785115072887754 0
2.951522810440164 0.5995349944823752 0
0.5591131416216563 0.2791940688436214 0
0.5817690965011905 0.3180386921514113 0
0.5363223429032008 0.3181181454258206 0
0.5590799034518541 0.3577335228902347 0
2.671507320584846 0.2416532643303031 0
0.5129751095268966 0.3576683284772433 0
0.5360042291720796 0.3976917483469583 0
0.5824744072527975 0.3977458985417416 0
0.5593202208963615 0.4382323507424581 0
0.6062221806132498 0.4382172989803606 0
0.5831398502988122 0.4790536480492864 0
0.630245509211025 0.4792447281197085 0
0.5373735766893435 0.4817209888486334 0
0.2780994584865757 0.9660670791366374 0
0.9407829849899363 0.9559852449915113 0
0.6069171020766708 0.5203953730037822 0
0.6544691944766102 0.5205851219036783 0
2.724115018794794 0.9563165682871465 0
0.04341732373162228 0.2894490564426765 0
0.6304562046384772 0.5622881188475496 0
0.6786259291441818 0.5621981517123112 0
0.03938236249337418 0.7091098825652095 0
0.2999999999993055 0.04723774929726795 0
0.7024556039582556 0.5200372393771872 0
0.726826368578132 0.562505099575485 0
0.6545296629344706 0.6041261864689124 0
0.6061411599039735 0.6041581669226386 0
2.954333097254252 0.4393531299125908 0
0.7512905139641642 0.5199435586712576 0
0.7757938242112172 0.5624873891767795 0
0.4902278874550028 0.3174350849704655 0
0.4661669324669476 0.3576870257641042 0
0.8003371868304782 0.5195844107098163 0
0.8251782158071723 0.5621174250913318 0
0.6300572939290072 0.6460588488486728 0
0.581677101888915 0.6462390077748084 0
0.7994632498085218 0.6067218912904607 0
0.850068894442807 0.6047738158182728 0
0.8747482025846163 0.5617915498272615 0
0.8998102571129438 0.6045430073239006 0
0.924588798996443 0.5614360364847856 0
0.9497125983499418 0.6046345614192383 0
0.9744389394813738 0.5613114208485291 0
0.9997656958801404 0.604758732930365 0
1.024028015453996 0.5597386087889248 0
1.050046148741532 0.6042836632406788 0
1.075213347289947 0.5607219500906248 0
1.100604808237692 0.6043040651294929 0
1.125727120818654 0.5598592244124957 0
1.151165990249003 0.6040638744783449 0
1.176319565514503 0.5595216793632644 0
1.201793840633129 0.6038781229769293 0
1.226960854257978 0.5600604284234054 0
1.252470704079807 0.6038664424080111 0
1.277198987313166 0.55874807111347 0
1.303148970446812 0.6035341865995129 0
1.328130525802366 0.5586520846649797 0
1.353966012915828 0.6034054551655909 0
1.379205474149696 0.558835304845746 0
1.404820923589671 0.6032503772964327 0
1.430092956912838 0.5587079795953892 0
1.455686300628245 0.6030926920218221 0
1.480963489515269 0.5580480170404921 0
1.506562983627252 0.6028436706904448 0
1.531847734917255 0.5577680566445021 0
1.557453558526421 0.6026435181305781 0
1.582745756648754 0.5575726351194972 0
1.608358176126191 0.6024617369905624 0
1.633656322435163 0.5573842056888257 0
1.659277805706528 0.6022873884346892 0
1.684577462424181 0.5572075399874397 0
1.710203504633815 0.6021111834258887 0
1.735506494091908 0.5570246051384745 0
1.761134606493805 0.6019307913070558 0
1.786441498808711 0.5568475628142857 0
1.812072359676459 0.6017522495250318 0
1.837381834584306 0.5566653603575672 0
1.863017119880456 0.601574020443024 0
1.888326681794851 0.5564884669211013 0
1.913963858781491 0.601395113412113 0
1.939274704592935 0.5563067813822595 0
1.964908406083961 0.6012129143420911 0
1.990224566339525 0.5561292537946573 0
2.015859329864652 0.601032757987411 0
2.041177190815608 0.5559477304122714 0
2.066818109147928 0.600855564813206 0
2.09213259478423 0.5557710179709322 0
2.117774443326183 0.6006760179252703 0
2.143088896138059 0.5555900146741853 0
2.168729305797513 0.6004921726308964 0
2.194045774061603 0.5554125217101814 0
2.219686577151481 0.6003111949874665 0
2.245003702950199 0.5552312296013228 0
2.270641766736839 0.6001298880828497 0
2.295962173634055 0.5550546947866846 0
2.321601310982481 0.599950595338254 0
2.346923922781879 0.5548708301001631 0
2.372568004594504 0.5997713467128002 0
2.397895756972162 0.5547000681173012 0
2.423546697517365 0.5996004731097838 0
2.448884659670238 0.5545095609010697 0
2.474538141419978 0.5994220729206983 0
2.499902931415869 0.5543494429014709 0
2.525546234724433 0.5993228147833797 0
2.550973655834774 0.5541346321759457 0
2.576685338327378 0.5992395038842441 0
2.602182482443039 0.5540180644105763 0
2.958944511946492 0.7598964409357507 0
2.628014314012249 0.5990918128353608 0
0.4429170888396284 0.3159793431387367 0
0.4184631156771032 0.357715436029677 0
0.3946070818022522 0.3157219358498637 0
0.3697276561976696 0.3576135465858128 0
2.449044355814981 0.643990885448769 0
2.24531935830005 0.6444881680698032 0
1.024857369602972 0.6487487015028032 0
2.041498164113345 0.6452136474256573 0
1.837701628146142 0.6459229900926835 0
0.3455853078837237 0.3150377509381005 0
0.3204780172155196 0.3574251905568473 0
0.3449438693484468 0.4002519798591844 0
1.633970683060678 0.6466170330762969 0
1.227333380683899 0.6479317947648683 0
1.430444030483603 0.6473399689389928 0
0.875196942148915 0.6483605753517908 0
0.6057010339261732 0.6883083412871458 0
0.5571396249147901 0.6885103796531055 0
2.653543252321963 0.5527758280498023 0
1.099471497978971 0.5148848291986879 0
2.602427017093663 0.6438096025956825 0
2.653851606946175 0.6437140715169269 0
1.353138019780104 0.5138574114565649 0
1.556762689169365 0.5115839513085039 0
1.760509743411542 0.5109012431757174 0
1.964341412665395 0.510388685431229 0
0.2953909602266698 0.4001745965167012 0
[...]
    <PointData>
      <DataArray type="Float64" NumberOfComponents="3" Name="Velocity" format="ascii">
2.999999982859546 0 0
0 0 0
0 0 0
3.086756337711226 0 0
3.091532628352769 0 0
3 0 0
3.000000017400926 0 0
2.999999917098203 0 0
3.00000042887918 0 0
2.999998489102912 0 0
2.99999925920209 0 0
3.00006923243717 0 0
2.999278225278411 0 0
3.005439491212412 0 0
2.965332379092862 0 0
3.185430651704954 0 0
0 -0.01534372453594688 0
0 0.01810771703440153 0
0 -0.01131299803643191 0
0 0.00390009742804895 0
2.892434393644786 0 0
3.00703683818059 0 0
3.000827209989907 0 0
2.999795146538603 0 0
3.000012198494575 0 0
3.000004752033793 0 0
2.999998230064072 0 0
3.000000346719026 0 0
2.999999941906003 0 0
3.000000014814206 0 0
2.999999995227612 0 0
3.000000001259962 0 0
2.999999999768103 0 0
3.000000000019166 0 0
3.000000000004893 0 0
2.999999999997424 0 0
3.000000000000635 0 0
2.999999999999908 0 0
3.000000000000001 0 0
3.000000000000004 0 0
2.999999999999999 0 0
3 0 0
3 0 0
3 0 0
3 0 0
3 0 0
2.999999999999999 0 0
3.000000000000005 0 0
2.999999999999996 0 0
2.999999999999919 0 0
3.000000000000617 0 0
2.999999999997505 0 0
3.000000000003777 0 0
3.000000000032514 0 0
2.999999999622042 0 0
3.0000000026196 0 0
2.999999985312587 0 0
3.00000006341073 0 0
2.99999982225476 0 0
3.000000040803374 0 0
3.000002740696861 0 0
2.999982799570306 0 0
3.000073730485193 0 0
2.999671081471969 0 0
3.001594064128529 0 0
2.989809475910858 0 0
3.094092123494318 0.0005905149348871252 0
3.084042428196303 -0.0004091337887387874 0
3.086979633456392 0.0001302849332104287 0
3.086936150977994 3.299454503478653e-05 0
3.089790236000356 3.429728989503139e-05 0
3.092809983149696 -0.0001680878384141568 0
3.088282357941559 0.0002524198036828756 0
3.087836741979389 -0.0002450671646264225 0
3.095445469583927 0.0002274142823731398 0
3.092819812146501 -1.259130887273637e-05 0
3.093450555729472 -0.0002197781812763971 0
3.08478554480555 0.0001484805076701861 0
3.086070447629433 0.000100789224443692 0
3.105247389654467 -0.0003209956325311549 0
2.989310816599974 0 0
3.001674616053697 0 0
2.999691307162376 0 0
3.000038855289001 0 0
3.000002433365209 0 0
2.999997374480528 0 0
3.000000731451087 0 0
2.999999868617726 0 0
3.000000017121467 0 0
2.999999998340013 0 0
3.000000000069965 0 0
3.000000000036581 0 0
2.999999999980789 0 0
3.000000000005584 0 0
2.999999999998967 0 0
3.000000000000047 0 0
3.000000000000044 0 0
2.999999999999981 0 0
3.000000000000004 0 0
3 0 0
3 0 0
3 0 0
3 0 0
3 0 0
3 0 0
3 0 0
3 0 0
3 0 0
3 0 0
3 0 0
3 0 0
3 0 0
3 0 0
2.999999999999999 0 0
3.000000000000002 0 0
3.000000000000002 0 0
2.999999999999993 0 0
2.999999999999995 0 0
3.000000000000004 0 0
3.000000000000079 0 0
3.000000000000052 0 0
2.999999999999442 0 0
2.999999999999659 0 0
3.000000000002722 0 0
3.000000000002922 0 0
2.999999999991283 0 0
2.999999999976676 0 0
2.999999999978471 0 0
2.999999999993513 0 0
3.000000000002521 0 0
3.000000000001465 0 0
2.999999999999638 0 0
2.999999999999887 0 0
3.000000000000044 0 0
2.999999999999988 0 0
3.000000000000004 0 0
2.999999999999998 0 0
2.999999999999999 0 0
3 0 0
3.000000000000008 0 0
2.999999999999886 0 0
3.000000000001343 0 0
2.999999999993482 0 0
3.000000000041644 0 0
2.999999999824364 0 0
3.000000000512597 0 0
2.999999999418181 0 0
2.999999998725071 0 0
2.999999999292382 0 0
3.000000003833666 0 0
3.00000001142062 0 0
3.000000008134494 0 0
3.00000001559968 0 0
3.000000014352619 0 0
3.000000001066273 0 0
2.99999999895767 0 0
2.999999999994827 -1.432270083066302e-12 0
2.862565006796552 0.06203883714220029 0
2.99999999999846 -3.327652258817111e-13 0
3.000000014314439 -1.733398910172633e-09 0
3.000000000048026 2.859415331173343e-12 0
2.999999999999823 2.04825369451125e-14 0
3.000000000000001 2.828335947525214e-18 0
3 2.836488398528565e-17 0
3 -1.39432110721366e-17 0
2.999999999999999 1.566537345568566e-16 0
3.000000000000005 -1.774493637421398e-15 0
2.999999999438963 8.975939275485675e-11 0
3.000000510971692 2.600315350029684e-07 0
2.999999999727611 -3.881901725608137e-10 0
3.000000000005334 -4.340158600930804e-13 0
2.999999999999988 -2.102175785224688e-16 0
3 -1.658351726358537e-17 0
3.000000000000001 -8.929035790932076e-18 0
2.999999999999722 1.403900314997835e-14 0
2.999999999870494 -1.06371415416217e-11 0
2.954180217411605 0.05111467613172292 0
3.027416600486233 -0.01174151968700126 0
2.984542425472069 -5.818422890012899e-06 0
3.001706972861628 -0.004597085270157772 0
2.995598980554627 0.001507528243768792 0
3.000795278246082 0.000407854516488959 0
3.000417863680503 -0.0001809976876665679 0
2.99999722089486 1.2165627164306e-07 0
2.999760775146225 -5.442963615255082e-05 0
3.000022652240203 3.660662744194943e-05 0
2.999598998173397 -1.517198323854223e-05 0
3.000053055873728 2.789244164775053e-06 0
3.000165250555406 3.044823920066626e-05 0
2.99996260824725 -8.713397092190231e-06 0
2.999955995044431 -1.10595935790187e-05 0
2.999998746732887 1.836039122760571e-06 0
2.999999999999879 -4.515422841754765e-14 0
2.999999999999791 -1.145191318194304e-13 0
3.000014665556157 4.446143882242972e-06 0
3.00000788077424 2.224386259831826e-06 0
3.00000969765533 2.521476321412361e-07 0
2.999999992722665 -1.074493424090373e-10 0
2.99999609099189 -1.298927815280384e-06 0
2.999999291172814 -1.674603663192169e-07 0
2.999999999991537 -5.920687726274366e-13 0
2.999953809491767 -3.494807553390198e-07 0
2.999998431342128 -9.683395970586707e-07 0
3.00000067977884 3.487845864067234e-07 0
3.000000729917567 2.515269191780369e-07 0
3.000001295898361 4.504746285301406e-07 0
2.983887565230181 -6.185079559595407e-05 0
2.999998699053938 -6.42516234458541e-07 0
3.000000079053183 2.882406916494635e-08 0
3.00020233451609 -0.0001583261369910164 0
3.000039138195938 3.00856749128766e-05 0
3.000000350471196 3.135747930449566e-07 0
2.999999904544111 -7.439598438369169e-08 0
2.999999658573411 -1.223701157365683e-07 0
2.999999684292635 -1.068358225611464e-07 0
3.000000023530468 1.814536569513568e-08 0
3.000000016412631 8.109144507320052e-09 0
2.999999979554385 2.624768625526422e-08 0
3.000000002836308 -8.244904944028382e-09 0
2.999999992297355 1.178763871619362e-08 0
2.999999998653484 3.151930293289656e-10 0
3.000000016322466 -7.842632548066845e-09 0
2.999999996993294 1.332078048551701e-09 0
2.999999998587771 9.22781675238179e-10 0
3.000000001373711 -4.966622479573687e-10 0
2.999999996843502 6.034159715537765e-10 0
3.000000000100953 1.986093771774203e-11 0
3.000000001905055 -3.741956766034285e-10 0
2.999999999688014 5.194400305802098e-11 0
2.999999999368125 1.200558240716893e-10 0
3.000000000158738 -2.726806490095995e-11 0
3.000000000152249 -2.791779563377417e-11 0
2.999999999948794 8.645697230907413e-12 0
2.999999999970536 4.732605128198078e-12 0
3.000000000012409 -2.022142047974049e-12 0
3.000000000006818 -6.114132677845083e-13 0
2.999999999997383 3.677362142993321e-13 0
2.99999999999767 4.95206969280531e-14 0
3.000000000000613 -5.009146183942247e-14 0
3.000000000000914 -2.428067272258979e-15 0
2.999999999999803 4.696519803046576e-15 0
2.999999999999677 8.030229813354631e-16 0
3.000000000000075 -3.321607898224306e-16 0
3.000000000000094 -3.951062261786153e-16 0
2.999999999999974 7.376689147700539e-17 0
2.999999999999978 8.327614818550547e-17 0
3.000000000000008 -2.375926725324783e-17 0
3.000000000000004 -1.481833317977176e-17 0
2.999999999999998 3.800857311097631e-18 0
3 2.959119574274551e-18 0
3.000000000000001 -1.437231594054678e-17 0
3 -2.19464334612397e-17 0
3 -5.566722007689676e-18 0
3 -4.851172589666464e-18 0
3 4.973066282376272e-18 0
3 3.505029881627741e-18 0
3 -3.251527764473775e-17 0
3 5.647143721878493e-18 0
3 5.518571671804024e-18 0
3 -6.729671394411358e-18 0
3.000000000000001 3.809295848643271e-18 0
2.999999999999999 -2.997581814997728e-19 0
3.000000000000003 -3.38292787787918e-18 0
3.000000000000003 8.706058122751294e-17 0
2.999999999999985 2.248952760020013e-16 0
3.000000000000008 -1.049210452950424e-15 0
3.000000000000062 -1.705653199631098e-15 0
2.999999999999876 6.951179423818169e-15 0
2.999999999999882 9.460931663342207e-15 0
3.000000000000739 -3.191542557486694e-14 0
2.999999999999507 -3.754735148251739e-14 0
2.999999999997184 7.332792930715528e-14 0
3.000000000006352 8.87596181985587e-14 0
3.000000000005665 3.670381625303328e-13 0
2.999999999960501 6.933883141263098e-14 0
3.000000000015778 -6.118183886973832e-12 0
3.000000000188125 -1.730939721524863e-12 0
2.999999999740486 4.841442666443896e-11 0
2.999999999259187 6.70600080854128e-12 0
3.000000001949647 -2.828281523221267e-10 0
3.000000002043657 9.211140298479371e-12 0
2.999999988719042 1.308669565685598e-09 0
3.000000001747026 -2.948998693688709e-10 0
3.000000047165348 -4.627429747645015e-09 0
2.999999927638227 2.083207411680003e-09 0
2.99999991033209 9.998148965929621e-09 0
2.984838174267745 0.0001541403692590035 0
3.00000051040865 -8.872482717124306e-09 0
2.999717268693951 2.250674373097838e-05 0
3.000025862846985 -3.923482123585716e-06 0
3.000103167755626 2.314856466748707e-06 0
2.999985295720342 -1.663934815867029e-06 0
3.000000001699799 2.448822079904432e-10 0
2.999999999997274 6.7082612959093e-14 0
3.000000000265505 -9.753742411080835e-11 0
3.000000000000003 -2.758516564996777e-16 0
3 4.210271970830295e-18 0
2.999980816085217 -2.009785508843907e-06 0
3.000002641540411 1.140827519130015e-06 0
3.00000161522018 2.376262417031873e-07 0
2.999999999999998 -6.601325022046885e-18 0
2.999999999971771 4.206471403317226e-12 0
2.999999999999779 2.764613061208119e-14 0
2.999999998126771 6.888906065877623e-10 0
3.00000011196623 3.946174775564007e-08 0
3.000000055270734 1.693842084972377e-08 0
2.999999544650336 1.378759327564164e-08 0
2.999999992263844 1.6993539834139e-09 0
2.999999903757415 -1.252907951893781e-08 0
2.999999605942557 1.548173048006144e-08 0
3.000000000011306 -1.834275146167402e-14 0
3.000000000000047 1.990235216348282e-16 0
3 1.588741331695586e-17 0
3 4.645749446112793e-17 0
2.999999806625538 -3.3245130060295e-07 0
2.999999821817281 7.050608777201114e-08 0
2.999999999999931 -1.623434215764611e-14 0
3.000000000096863 -1.69222007410661e-11 0
2.999999828683794 1.40044720377459e-08 0
2.999999955934508 -4.096888326788004e-07 0
2.999999952724138 2.438555769899685e-08 0
3.000000774035965 6.790733666448721e-08 0
2.999997468558026 -3.243967896536422e-07 0
2.99999997356707 -8.713685360322231e-09 0
2.999999972024582 -9.72082576747684e-09 0
2.999999994629639 -1.095999459601191e-09 0
2.999999993323091 -4.747163427164517e-09 0
3.000000003649069 1.663105243102895e-09 0
2.999999991428812 -3.790925068931088e-09 0
3.00000000071781 2.641123300817238e-10 0
3.000000001784606 9.795558832367157e-10 0
2.999999999434473 -2.907814875059608e-10 0
3.000000000708934 4.381042217608087e-10 0
3.000000000012331 8.53674107208827e-12 0
2.999999999709482 -2.436833826167655e-10 0
2.956678774911756 -0.007354509008185899 0
2.99948111783274 1.392253396775619e-05 0
3.000000000044859 3.87911033573613e-11 0
3.000001582799997 4.397014045403449e-07 0
3.000099927576972 -1.748252828057532e-05 0
3.000000016542999 5.622500827588197e-08 0
2.999962035666372 6.270739759916605e-06 0
3.000000000014226 2.655484656405444e-11 0
2.999998433769913 -3.046966865147811e-08 0
3.000000121899411 8.816081937568286e-09 0
3.000010033326373 6.30487973828122e-08 0
3.000002191470684 1.359698716234264e-06 0
2.99274679704376 0.0002612607656812734 0
3.000000004483724 1.304530101678317e-09 0
2.999999269198645 -2.724090050257695e-08 0
2.999999999492708 2.242300048931393e-10 0
2.999999982287898 8.941091023176001e-11 0
2.999993907003482 1.317877988191616e-07 0
3.000000329256799 -5.26849439561943e-08 0
2.999999999999498 -1.743806201492287e-14 0
3.000000000002147 3.029629913023768e-14 0
2.999999999999893 -7.154150814092235e-15 0
3 4.261700579857386e-18 0
3 2.885132918174678e-17 0
2.999999999999984 4.159354721771873e-16 0
2.999999999999843 -1.082707668203294e-14 0
3.000000000000001 1.714889813045801e-17 0
3.000000000147682 -1.512812306860144e-11 0
3.000000000000053 -5.492026895042718e-16 0
3 1.372137238111095e-17 0
2.999999990171572 1.162414728305318e-08 0
2.999999999972483 7.617807025392885e-13 0
2.9999999999959 6.250674111198742e-13 0
2.999999999999998 3.027810840040304e-16 0
3 6.224118699297493e-18 0
3.000000001329252 -7.548745076026423e-11 0
3.000000000000002 2.267854451121817e-14 0
3.000000000000001 -5.216726623012202e-16 0
2.999999999999188 4.67302534079775e-13 0
3 -2.238171271936968e-17 0
3 -4.484972855711951e-18 0
3 1.924945517902604e-15 0
3.000000000092413 -2.975907196029113e-11 0
2.999999999999989 3.417302332200891e-16 0
3 8.356417302267564e-18 0
3 4.071237243943126e-17 0
3.000000000001137 -4.834705514264431e-15 0
3.000000000009102 8.276959584016653e-12 0
3.000000000005309 -9.643799441261706e-13 0
2.999999999677687 6.034482800146444e-11 0
2.999999875029905 -4.280439763740924e-09 0
2.999999993615042 -3.969077417596308e-09 0
3.000164794206909 -4.938548469642671e-07 0
2.998993249528032 -4.255815424990185e-05 0
2.999999997983963 1.796783604272537e-10 0
2.999999727195775 1.452018995600689e-07 0
3.000000000090032 4.437539952791045e-11 0
2.999483735167709 -4.051708771476323e-05 0
3.000000081476915 -3.947532414053824e-08 0
2.999999999991839 -1.561572565628268e-11 0
3.000000000199934 2.697974204281503e-10 0
3.000000000009244 -2.138631401228663e-10 0
2.999955807127015 -2.855971818840678e-08 0
3.00000058239142 -8.105897360044311e-08 0
2.999999884141823 1.159558307703633e-08 0
2.999999999275722 -2.84201776689582e-10 0
3.000000000050251 1.111739474507956e-11 0
3.0000000457628 2.251894100983874e-08 0
3.000027064532758 -4.619484363177622e-06 0
2.999999999997815 -1.858845635951679e-12 0
2.999999575314225 -6.538267851605445e-07 0
3.000008890724427 -5.188149881712782e-07 0
2.999998177782679 2.058014913220602e-07 0
2.999999727498651 -1.074200865298709e-09 0
3.000000525219755 -1.721036707712606e-06 0
3.000026634364133 5.314315589769715e-06 0
2.984888052686529 4.902529066506582e-05 0
2.983828540295788 -2.224118211328555e-05 0
3.000000093480512 1.60547985087146e-07 0
3.000000000001277 3.098700935088154e-12 0
2.999999223824561 -6.372324828625091e-07 0
3.000004209464515 3.719004148639762e-06 0
3.000001077156849 -1.122142606209221e-06 0
2.999973482117156 -1.807452225325671e-06 0
2.999999924830019 -2.352004867741077e-08 0
3.025233575676439 -0.007083369065655455 0
2.999999768043587 -1.586843497801701e-07 0
3.000000164826862 -3.96486189087182e-08 0
2.999999935671821 1.567127030510234e-08 0
2.999999988608574 6.600725556892253e-09 0
3.000000368771831 -5.304573145847356e-08 0
2.999999999999234 -7.760321987797451e-13 0
2.999994531771496 -1.114334657180055e-06 0
2.999995962747385 4.563081268750358e-06 0
2.999987932198446 -1.171503977909253e-05 0
3.000097312444308 1.100100314963465e-05 0
3.000017943414172 -1.399109234973521e-07 0
2.999999999999911 -2.849916088821273e-13 0
3.000000000000586 3.362983483676444e-13 0
2.999999926978584 2.024005538639332e-08 0
3.000000028196848 -6.311401581406498e-09 0
3.000000015680544 -9.607135912433353e-10 0
2.999999993721647 1.289087840819269e-09 0
2.999999998823644 -5.863807163955389e-11 0
3.000000001054409 -1.847841884944781e-10 0
2.999999999898776 3.978547432924667e-11 0
2.999999999871328 1.467411196463298e-11 0
3.00000000006886 -8.151004267395567e-12 0
3.000000000002923 1.02472282509675e-12 0
2.999999999981683 9.331940727037084e-13 0
3.000000000004492 -6.133057230086466e-13 0
3.000000000003108 -2.981699627476372e-14 0
2.999999999998334 1.185811364830258e-13 0
2.999999999999788 -5.88718120877797e-15 0
3.000000000000353 -1.274645777376471e-14 0
2.999999999999933 -1.870218972235239e-15 0
2.999999999999959 4.588814630419932e-16 0
3.000000000000028 1.61889968529552e-15 0
2.999999999999998 -8.614413470903546e-18 0
2.999999999999995 -5.491615707860203e-16 0
3.000000000000003 7.013683007815047e-17 0
3 1.016986470735896e-16 0
2.999999999999999 -2.913837905250938e-17 0
3.000000000000001 -6.617957098946805e-18 0
3 1.845784121988726e-17 0
3 -7.075260226133854e-18 0
3 -1.903690560988491e-17 0
3 8.97042804094595e-18 0
3 1.177127124289133e-17 0
3 -1.083102540877786e-19 0
3 -4.420403400944336e-18 0
3 -5.348985620927444e-18 0
3 1.884971646130276e-17 0
3 3.586921626069998e-18 0
3 -1.142641579055019e-17 0
3 1.160739589961797e-17 0
3 -4.218541345128239e-19 0
3.000000000000001 -4.868990828909544e-17 0
3.000000000000001 -5.69213519959859e-17 0
2.999999999999998 2.364884562372302e-16 0
2.999999999999998 1.557611362193752e-16 0
3.000000000000007 -8.322937526303722e-16 0
3.000000000000003 -2.20508436087323e-16 0
2.999999999999983 2.00923326329977e-15 0
3 -2.379108441867575e-16 0
3.000000000000027 -2.61743910935098e-15 0
2.999999999999985 2.783109357872675e-15 0
3.00000000000001 -5.010558841963627e-15 0
3.000000000000052 -9.030916524289388e-15 0
2.999999999999799 4.100270088752591e-14 0
2.999999999999925 1.131786280288568e-14 0
3.000000000000587 -1.131377454325209e-13 0
2.999999999999936 2.682217306753804e-14 0
2.999999999999437 7.922046479158686e-14 0
3.000000000000486 -1.515117494227714e-13 0
2.999999999998562 5.443122681917114e-13 0
2.999999999999418 2.028988642249801e-13 0
3.00000000000472 -1.896410636502435e-12 0
2.99999999999913 4.840875208712954e-13 0
2.999999999999287 7.102584345378433e-13 0
3.000000000001542 -1.962374508220471e-12 0
2.999999999990536 9.470886382933676e-12 0
3.000000000003022 2.077603029004526e-13 0
2.999999999985924 -1.621421798094961e-11 0
3.000000000005994 8.65178237900943e-12 0
3.000000000005862 -2.515696781387844e-11 0
2.999999999971241 -8.149832457076883e-12 0
3.000000000194959 8.440930440802898e-11 0
2.999999999944175 -2.441309541230373e-11 0
2.999999999978094 2.870099011457024e-12 0
3.000000000174362 6.363023262064444e-11 0
2.999983019958071 2.84732135812464e-06 0
3.000083976545445 -1.362242586156287e-05 0
2.999999999985286 8.999389490020591e-10 0
3.00000000002635 3.721105490559723e-11 0
3.000010957792627 -7.782468097724899e-07 0
2.999942066555494 3.461032222688402e-06 0
2.999854039061631 1.042190239851847e-05 0
2.999999998870625 -4.524496815982554e-10 0
3.000000000321209 1.27075343098244e-10 0
3.000000001704924 7.180590086525214e-10 0
3.000000137263917 6.124047414994514e-09 0
2.99979736869871 1.245986089944798e-07 0
3.00009549481587 -1.106895832409071e-05 0
2.999557164065608 4.530146611314726e-05 0
2.999873807189285 -6.464496426973246e-06 0
3.000029601488004 2.790446730951649e-06 0
3.000114562193776 5.582849933794334e-06 0
2.999956891826696 -5.875492570883248e-07 0
3.000046036180468 -4.933262229578146e-06 0
2.999993405745772 1.748450376894575e-06 0
2.999992209651212 -1.250041640826032e-06 0
3.000004294908921 -5.517426668482762e-08 0
3.000010397507581 8.491123211431167e-06 0
2.999999448001051 -3.736208564720909e-07 0
2.999998909857619 8.378427865504591e-08 0
2.999999978810065 -2.498492555125721e-08 0
3.000000316929323 2.162638535754256e-07 0
3.000000013444908 -3.531187865082706e-09 0
3.000000000017063 6.367060525893017e-12 0
3.000000010479763 -7.02704823049306e-10 0
2.999999999999985 -1.933008930587146e-15 0
3.030413627219998 -0.002372784165662039 0
3.000000553028148 5.64266151156907e-08 0
3.000000140239388 -2.885778371553116e-08 0
2.99999984575093 -5.085789404354984e-09 0
3.000000000747195 6.931496309899079e-09 0
3.000000027193276 -2.25715538447125e-10 0
2.999999995260552 -1.309800885539667e-09 0
2.999999996772167 2.113674771924658e-10 0
3.000000001331681 1.989552893509667e-10 0
3.000000000158989 -5.303645774885989e-11 0
2.999999999755424 -2.191553213739284e-11 0
3.000000000051766 8.930457676420027e-12 0
3.000000000027649 8.220702003959777e-13 0
2.999999999978743 -1.098514330187113e-12 0
3.000000000001108 3.929735189687981e-13 0
3.000000000004564 9.761940345335623e-14 0
2.999999999998451 -1.503983812749796e-13 0
2.999999999999467 -7.594611440792731e-15 0
3.000000000000435 3.686430089199813e-14 0
2.999999999999973 1.74480516215111e-15 0
2.999999999999937 -7.764154799912715e-15 0
3.000000000000028 -6.183177550730244e-16 0
2.999999999999999 1.508060539880531e-15 0
2.999999999999993 1.394682934801645e-16 0
3.000000000000003 -2.720752896425038e-16 0
3 -2.786568854268778e-17 0