<?xml version="1.0"?>
<VTKFile type="UnstructuredGrid">
  <UnstructuredGrid>
  <Piece NumberOfPoints="1224"  NumberOfCells="2290">
    <Points>
      <DataArray type="Float64" NumberOfComponents="3" format="ascii">
0 0 0
0.6 0 0
0.6 0.2 0
3 0.2 0
3 1 0
0 1 0
0.05454545454535233 0 0
0.1090909090906768 0 0
0.1636363636359771 0 0
0.2181818181812728 0 0
0.2727272727265793 0 0
0.3272727272720317 0 0
0.3818181818176247 0 0
0.4363636363632168 0 0
0.4909090909088285 0 0
0.5454545454544089 0 0
0.6 0.03999999999991203 0
0.6 0.07999999999979179 0
0.6 0.1199999999997886 0
0.6 0.1599999999998948 0
0.6510638297871261 0.2 0
0.7021276595742618 0.2 0
0.7531914893613819 0.2 0
0.8042553191485237 0.2 0
0.8553191489356438 0.2 0
0.9063829787228289 0.2 0
0.957446808509926 0.2 0
1.008510638297009 0.2 0
1.059574468084092 0.2 0
1.110638297871174 0.2 0
1.161702127658257 0.2 0
1.21276595744534 0.2 0
1.263829787232422 0.2 0
1.314893617019505 0.2 0
1.365957446806588 0.2 0
1.417021276593671 0.2 0
1.468085106380754 0.2 0
1.519148936167923 0.2 0
1.570212765955006 0.2 0
1.621276595742088 0.2 0
1.672340425529171 0.2 0
1.723404255316254 0.2 0
1.774468085103337 0.2 0
1.825531914890624 0.2 0
1.876595744677951 0.2 0
1.927659574465349 0.2 0
1.978723404252714 0.2 0
2.029787234040074 0.2 0
2.080851063827477 0.2 0
2.131914893614798 0.2 0
2.182978723402204 0.2 0
2.234042553189523 0.2 0
2.285106382976928 0.2 0
2.336170212764247 0.2 0
2.387234042551653 0.2 0
2.438297872338975 0.2 0
2.489361702126377 0.2 0
2.540425531913739 0.2 0
2.591489361701102 0.2 0
2.642553191488421 0.2 0
2.693617021275827 0.2 0
2.744680851063146 0.2 0
2.795744680850551 0.2 0
2.84680851063787 0.2 0
2.897872340425276 0.2 0
2.948936170212618 0.2 0
3 0.2533333333332341 0
3 0.3066666666664725 0
3 0.3599999999996274 0
3 0.413333333332804 0
3 0.4666666666659806 0
3 0.5199999999991571 0
3 0.5733333333323336 0
3 0.6266666666656895 0
3 0.6799999999991551 0
3 0.7333333333326146 0
3 0.7866666666660802 0
3 0.8399999999995775 0
3 0.8933333333330373 0
3 0.9466666666664969 0
2.949152542373491 1 0
2.898305084746983 1 0
2.847457627120474 1 0
2.796610169493702 1 0
2.745762711866469 1 0
2.694915254239208 1 0
2.644067796611963 1 0
2.593220338985156 1 0
2.542372881358647 1 0
2.491525423732018 1 0
2.44067796610481 1 0
2.389830508477549 1 0
2.338983050850287 1 0
2.288135593223026 1 0
2.237288135595765 1 0
2.186440677968504 1 0
2.135593220341243 1 0
2.084745762713982 1 0
2.033898305086721 1 0
1.983050847459614 1 0
1.932203389832729 1 0
1.881355932205844 1 0
1.830508474578958 1 0
1.779661016952073 1 0
1.728813559325189 1 0
1.677966101698303 1 0
1.627118644071418 1 0
1.576271186444533 1 0
1.525423728817648 1 0
1.474576271190575 1 0
1.423728813563314 1 0
1.372881355936053 1 0
1.322033898308791 1 0
1.27118644068153 1 0
1.220338983054269 1 0
1.169491525427008 1 0
1.118644067799747 1 0
1.067796610172485 1 0
1.016949152545224 1 0
0.9661016949179628 1 0
0.9152542372907018 1 0
0.8644067796634407 1 0
0.8135593220361792 1 0
0.7627118644089181 1 0
0.7118644067816566 1 0
0.661016949154396 1 0
0.6101694915271345 1 0
0.5593220338998739 1 0
0.5084745762726124 1 0
0.4576271186453518 1 0
0.4067796610180903 1 0
0.3559322033908292 1 0
0.3050847457635677 1 0
0.2542372881363066 1 0
0.2033898305090456 1 0
0.1525423728817841 1 0
0.101694915254523 1 0
0.05084745762726151 1 0
0 0.9473684210524125 0
0 0.8947368421048248 0
0 0.8421052631576025 0
0 0.7894736842105994 0
0 0.7368421052635962 0
0 0.6842105263165927 0
0 0.6315789473695894 0
0 0.5789473684225861 0
0 0.5263157894755828 0
0 0.4736842105282874 0
0 0.4210526315806998 0
0 0.3684210526331123 0
0 0.3157894736855248 0
0 0.2631578947379374 0
0 0.21052631579035 0
0 0.1578947368427625 0
0 0.1052631578951749 0
0 0.05263157894758741 0
0.4374856279758046 0.955462795473483 0
0.625531914893563 0.2394317949808221 0
0.7891616249544176 0.9557759867023439 0
2.570562443351098 0.9559758769411787 0
2.364406779663917 0.9559648099769389 0
2.161016949154874 0.9559648099769389 0
1.957627118646171 0.9559648099772646 0
1.756856606547665 0.9560078743553572 0
1.553415402058453 0.9561420672712786 0
1.347457627122422 0.95627738856474 0
1.144067796613377 0.9563034567995272 0
0.04146670856173688 0.5498854761242812 0
0.9828861012149002 0.2442383967812095 0
2.465390809289578 0.2421522008426663 0
2.259572257543314 0.243586373321511 0
2.055319178697841 0.24363095694403 0
1.851066099915384 0.2436741865527954 0
1.646810778591931 0.2437170671454607 0
1.442550972205278 0.2437587738062726 0
1.238275543433999 0.2442249255777628 0
0.5808319854219957 0.2417757800606361 0
0.6039807146029165 0.2785115072887754 0
2.951522810440164 0.5995349944823752 0
0.5591131416216563 0.2791940688436214 0
0.5817690965011905 0.3180386921514113 0
0.5363223429032008 0.3181181454258206 0
0.5590799034518541 0.3577335228902347 0
2.671507320584846 0.2416532643303031 0
0.5129751095268966 0.3576683284772433 0
0.5360042291720796 0.3976917483469583 0
0.5824744072527975 0.3977458985417416 0
0.5593202208963615 0.4382323507424581 0
0.6062221806132498 0.4382172989803606 0
0.5831398502988122 0.4790536480492864 0
0.630245509211025 0.4792447281197085 0
0.5373735766893435 0.4817209888486334 0
0.2780994584865757 0.9660670791366374 0
0.9407829849899363 0.9559852449915113 0
0.6069171020766708 0.5203953730037822 0
0.6544691944766102 0.5205851219036783 0
2.724115018794794 0.9563165682871465 0
0.04341732373162228 0.2894490564426765 0
0.6304562046384772 0.5622881188475496 0
0.6786259291441818 0.5621981517123112 0
0.03938236249337418 0.7091098825652095 0
0.2999999999993055 0.04723774929726795 0
0.7024556039582556 0.5200372393771872 0
0.726826368578132 0.562505099575485 0
0.6545296629344706 0.6041261864689124 0
0.6061411599039735 0.6041581669226386 0
2.954333097254252 0.4393531299125908 0
0.7512905139641642 0.5199435586712576 0
0.7757938242112172 0.5624873891767795 0
0.4902278874550028 0.3174350849704655 0
0.4661669324669476 0.3576870257641042 0
0.8003371868304782 0.5195844107098163 0
0.8251782158071723 0.5621174250913318 0
0.6300572939290072 0.6460588488486728 0
0.581677101888915 0.6462390077748084 0
0.7994632498085218 0.6067218912904607 0
0.850068894442807 0.6047738158182728 0
0.8747482025846163 0.5617915498272615 0
0.8998102571129438 0.6045430073239006 0
0.924588798996443 0.5614360364847856 0
0.9497125983499418 0.6046345614192383 0
0.9744389394813738 0.5613114208485291 0
0.9997656958801404 0.604758732930365 0
1.024028015453996 0.5597386087889248 0
1.050046148741532 0.6042836632406788 0
1.075213347289947 0.5607219500906248 0
1.100604808237692 0.6043040651294929 0
1.125727120818654 0.5598592244124957 0
1.151165990249003 0.6040638744783449 0
1.176319565514503 0.5595216793632644 0
1.201793840633129 0.6038781229769293 0
1.226960854257978 0.5600604284234054 0
1.252470704079807 0.6038664424080111 0
1.277198987313166 0.55874807111347 0
1.303148970446812 0.6035341865995129 0
1.328130525802366 0.5586520846649797 0
1.353966012915828 0.6034054551655909 0
1.379205474149696 0.558835304845746 0
1.404820923589671 0.6032503772964327 0
1.430092956912838 0.5587079795953892 0
1.455686300628245 0.6030926920218221 0
1.480963489515269 0.5580480170404921 0
1.506562983627252 0.6028436706904448 0
1.531847734917255 0.5577680566445021 0
1.557453558526421 0.6026435181305781 0
1.582745756648754 0.5575726351194972 0
1.608358176126191 0.6024617369905624 0
1.633656322435163 0.5573842056888257 0
1.659277805706528 0.6022873884346892 0
1.684577462424181 0.5572075399874397 0
1.710203504633815 0.6021111834258887 0
1.735506494091908 0.5570246051384745 0
1.761134606493805 0.6019307913070558 0
1.786441498808711 0.5568475628142857 0
1.812072359676459 0.6017522495250318 0
1.837381834584306 0.5566653603575672 0
1.863017119880456 0.601574020443024 0
1.888326681794851 0.5564884669211013 0
1.913963858781491 0.601395113412113 0
1.939274704592935 0.5563067813822595 0
1.964908406083961 0.6012129143420911 0
1.990224566339525 0.5561292537946573 0
2.015859329864652 0.601032757987411 0
2.041177190815608 0.5559477304122714 0
2.066818109147928 0.600855564813206 0
2.09213259478423 0.5557710179709322 0
2.117774443326183 0.6006760179252703 0
2.143088896138059 0.5555900146741853 0
2.168729305797513 0.6004921726308964 0
2.194045774061603 0.5554125217101814 0
2.219686577151481 0.6003111949874665 0
2.245003702950199 0.5552312296013228 0
2.270641766736839 0.6001298880828497 0
2.295962173634055 0.5550546947866846 0
2.321601310982481 0.599950595338254 0
2.346923922781879 0.5548708301001631 0
2.372568004594504 0.5997713467128002 0
2.397895756972162 0.5547000681173012 0
2.423546697517365 0.5996004731097838 0
2.448884659670238 0.5545095609010697 0
2.474538141419978 0.5994220729206983 0
2.499902931415869 0.5543494429014709 0
2.525546234724433 0.5993228147833797 0
2.550973655834774 0.5541346321759457 0
2.576685338327378 0.5992395038842441 0
2.602182482443039 0.5540180644105763 0
2.958944511946492 0.7598964409357507 0
2.628014314012249 0.5990918128353608 0
0.4429170888396284 0.3159793431387367 0
0.4184631156771032 0.357715436029677 0
0.3946070818022522 0.3157219358498637 0
0.3697276561976696 0.3576135465858128 0
2.449044355814981 0.643990885448769 0
2.24531935830005 0.6444881680698032 0
1.024857369602972 0.6487487015028032 0
2.041498164113345 0.6452136474256573 0
1.837701628146142 0.6459229900926835 0
0.3455853078837237 0.3150377509381005 0
0.3204780172155196 0.3574251905568473 0
0.3449438693484468 0.4002519798591844 0
1.633970683060678 0.6466170330762969 0
1.227333380683899 0.6479317947648683 0
1.430444030483603 0.6473399689389928 0
0.875196942148915 0.6483605753517908 0
0.6057010339261732 0.6883083412871458 0
0.5571396249147901 0.6885103796531055 0
2.653543252321963 0.5527758280498023 0
1.099471497978971 0.5148848291986879 0
2.602427017093663 0.6438096025956825 0
2.653851606946175 0.6437140715169269 0
1.353138019780104 0.5138574114565649 0
1.556762689169365 0.5115839513085039 0
1.760509743411542 0.5109012431757174 0
1.964341412665395 0.510388685431229 0
0.2953909602266698 0.4001745965167012 0
[...]
    <PointData>
      <DataArray type="Float64" NumberOfComponents="3" Name="Velocity" format="ascii">
2.99999985356111 0 0
0 0 0
0 0 0
3.191432689912151 0 0
3.193904213170943 0 0
3.000000000000054 0 0
3.000000154914269 0 0
2.999999331784225 0 0
3.000002552870559 0 0
2.999994479696797 0 0
2.999989410469556 0 0
3.000281762314933 0 0
2.997693446304413 0 0
3.006827146099018 0 0
3.052436539781314 0 0
2.266256881600611 0 0
0 0.008243732249869405 0
0 -0.004653954149888738 0
0 0.018651619124891 0
0 0.1213326264383375 0
2.055753486209865 0 0
2.775285958686497 0 0
2.971523941476497 0 0
3.003057407298322 0 0
3.001155294175722 0 0
2.999705860974219 0 0
2.999993160110818 0 0
3.000021243437659 0 0
2.999993317812021 0 0
3.000001430564558 0 0
2.999999865660961 0 0
2.999999951888887 0 0
3.000000034272788 0 0
2.999999986135199 0 0
3.000000004283387 0 0
2.999999999023519 0 0
3.00000000015986 0 0
2.999999999989162 0 0
2.999999999995106 0 0
3.000000000002754 0 0
2.999999999999096 0 0
3.000000000000227 0 0
2.999999999999953 0 0
3.000000000000005 0 0
3.000000000000006 0 0
2.99999999999998 0 0
3.00000000000004 0 0
3.000000000000029 0 0
2.999999999999539 0 0
3.000000000001122 0 0
3.000000000002293 0 0
2.999999999975957 0 0
3.00000000004685 0 0
3.000000000253974 0 0
2.99999999800486 0 0
3.00000000724913 0 0
2.999999974943953 0 0
3.000000093368697 0 0
2.999999686461741 0 0
3.000000499878737 0 0
3.000002603998875 0 0
2.999975882738233 0 0
3.000092955919189 0 0
2.999928384158769 0 0
2.998263396434435 0 0
3.021755736036433 0 0
3.193609048615103 0.0005980059245405911 0
3.183655211725454 -0.0002288987534137389 0
3.184837232663732 0.0001078062081458817 0
3.184489666463061 -9.837036182321769e-05 0
3.18649700661125 -0.0002177833504738488 0
3.18874730270945 -5.238618616646862e-05 0
3.186872691917042 0.0002558394316700222 0
3.186164575468425 -0.0004074655018384473 0
3.189787357580327 -4.058373728498078e-05 0
3.187474373624322 0.0001126069753545434 0
3.188646211315284 0.0001162790295865391 0
3.185182937414174 0.0002712905204767311 0
3.184264785971545 -0.0006316552366827657 0
3.196513675768424 -0.0003343379770856192 0
3.018144211154621 0 0
2.99835562292838 0 0
2.999914159088501 0 0
3.00006851911756 0 0
2.999982974151874 0 0
3.000002078089434 0 0
3.000000291570609 0 0
2.999999800335661 0 0
3.00000006017268 0 0
2.999999983944487 0 0
3.000000004487454 0 0
2.999999998914146 0 0
3.000000000073627 0 0
3.00000000004442 0 0
2.999999999985921 0 0
3.000000000000146 0 0
3.000000000001083 0 0
2.999999999999628 0 0
3.000000000000052 0 0
3.000000000000002 0 0
2.999999999999997 0 0
3.000000000000001 0 0
2.999999999999999 0 0
3.000000000000001 0 0
3 0 0
3 0 0
3.000000000000001 0 0
3.000000000000001 0 0
3 0 0
2.999999999999995 0 0
3.000000000000013 0 0
3.000000000000005 0 0
2.99999999999993 0 0
3.000000000000039 0 0
3.000000000000282 0 0
2.999999999999686 0 0
2.999999999999063 0 0
3.000000000001022 0 0
3.00000000000327 0 0
2.999999999998337 0 0
2.999999999989438 0 0
2.999999999996898 0 0
3.000000000019224 0 0
3.000000000026132 0 0
3.000000000013672 0 0
3.000000000002238 0 0
2.999999999997001 0 0
3.000000000003851 0 0
3.000000000008641 0 0
3.000000000001207 0 0
3.000000000000017 0 0
3.000000000001363 0 0
2.999999999999611 0 0
3.000000000000685 0 0
2.999999999999792 0 0
3.000000000000097 0 0
3.000000000000005 0 0
2.999999999999976 0 0
3.0000000000003 0 0
2.999999999999101 0 0
3.000000000000944 0 0
2.999999999996501 0 0
3.000000000001179 0 0
2.999999999917836 0 0
3.000000000101591 0 0
3.000000000763977 0 0
2.999999999826614 0 0
2.999999998739853 0 0
2.999999999439782 0 0
3.000000005465869 0 0
3.000000019592257 0 0
3.000000015534842 0 0
2.99999999551927 0 0
2.999999960528612 0 0
2.999999917934339 0 0
2.999999886359888 0 0
3.000000000000829 6.728573310991999e-15 0
2.113462067302712 0.2505012522079595 0
2.999999999949632 -2.791584152575928e-11 0
3.000000050030072 7.944981886868488e-09 0
3.000000000433953 1.868155629011482e-11 0
2.999999999997941 2.730708992460637e-13 0
3.000000000000006 -2.308458970914325e-15 0
3 2.309459400751857e-17 0
2.999999999999996 2.052907079530386e-16 0
3.000000000000035 -3.443087915758346e-14 0
3.000000000001347 -1.108330063734072e-13 0
2.999999999414513 1.091550190645056e-10 0
3.000036155268276 -3.307984344361309e-06 0
2.99999999473584 -2.784216694325829e-10 0
3.000000000025111 -2.176105330036141e-12 0
3.000000000000228 -5.36236948036204e-15 0
2.999999999999995 9.718186332829842e-16 0
3.000000000001119 -3.078148519329508e-15 0
3.000000000502437 -9.826859933966093e-12 0
3.000000072217372 -3.891912152087439e-09 0
2.328415053524783 0.2257947287820679 0
2.758447282941171 0.1507719127754901 0
3.029394609822131 -6.104760526166587e-05 0
2.89470248984532 0.06238619431354146 0
2.976378292132355 0.02605629544197106 0
2.997876199477203 0.003802580918067023 0
3.001598247146645 -0.0003609835643392315 0
3.000002592921093 -1.00158431293978e-07 0
3.000998572549528 -0.0007603094292664813 0
3.000156339656519 -0.0003047780806526575 0
3.000765043509169 -0.001036566153150431 0
2.999923486264121 3.447585960293487e-05 0
2.999965682677345 -0.0001040436552149486 0
2.999972972336237 6.364135500969289e-05 0
2.999974230524767 9.502018059733381e-05 0
2.999997236530569 1.595022120646274e-05 0
2.999999999999011 4.430348787182456e-13 0
3.000000000011406 5.115368484584089e-14 0
3.000004104232258 -5.55243504421105e-06 0
3.000003610978207 3.622984444637726e-07 0
2.999991882438335 3.107830099123182e-07 0
2.999999984010459 3.301632617885384e-09 0
3.000000125107716 -5.338317833203032e-06 0
2.999999124854912 -5.255511047420093e-06 0
3.000000000028305 2.848102819961955e-12 0
3.000106377376152 -2.713041935266002e-06 0
3.0000048448303 -5.045919400030848e-06 0
2.999998301325176 -2.995866477168374e-06 0
2.999999965058961 1.187802052205174e-06 0
2.999999814774881 1.345216171272781e-06 0
3.037892699187691 -0.000101779770885776 0
3.00000206755493 -9.513939761915722e-06 0
2.999998728054448 4.663268114588258e-07 0
3.002268110297973 -0.001074859263983803 0
2.999878752141817 -3.659855307928082e-06 0
2.999997291425567 -7.538684080517993e-06 0
3.000000117372871 1.650328449468547e-06 0
3.0000000236419 7.805035745726311e-08 0
3.000000041804097 -1.254244736463988e-07 0
3.000000461678886 2.972898468222021e-07 0
3.000000135434779 -2.38616434577868e-07 0
3.000000648918064 6.554888076155618e-07 0
2.999999857468852 -2.371907447189048e-07 0
3.000000251984697 -3.034534676775129e-07 0
2.999999912731093 2.994359876593684e-08 0
2.999999864387583 -1.826162415407155e-07 0
3.000000017350104 6.195935232527074e-08 0
2.999999888227749 9.502440701416355e-08 0
3.000000030794221 -1.557505410746484e-08 0
3.000000018110756 3.405941055542927e-08 0
3.000000000694226 -1.347668802609764e-08 0
3.000000035954627 -2.806518366067757e-08 0
2.999999990018028 6.852353513504876e-09 0
2.999999989772698 1.784790624549463e-09 0
3.000000002141718 1.180463360999732e-10 0
2.999999996348315 3.109761129718822e-09 0
3.000000001132309 -1.012126649979751e-09 0
3.000000003203942 -1.510932412819081e-09 0
2.999999999136205 4.376130555925016e-10 0
2.999999998871324 3.997286560186627e-10 0
3.000000000277459 -1.002746264713955e-10 0
3.000000000224346 -6.73806107106585e-11 0
2.999999999964271 8.13368818157987e-12 0
2.999999999971754 9.144582574798228e-12 0
2.999999999990366 3.278281197930641e-12 0
3.000000000003757 -1.968052480362894e-12 0
3.000000000007304 -1.687020545711017e-12 0
2.99999999999809 8.007146080266338e-13 0
2.999999999997461 4.475954112935015e-13 0
3.000000000001122 -3.219235575209791e-13 0
3.000000000000627 -7.951246903171334e-14 0
2.999999999999509 1.09030596231758e-13 0
2.999999999999885 7.587655447207552e-15 0
3.000000000000174 -3.200573497510185e-14 0
3.000000000000014 1.998647926140636e-15 0
2.999999999999944 8.587566700620179e-15 0
3.000000000000003 -1.033882124268471e-15 0
3.000000000000015 -2.243119851717465e-15 0
2.999999999999996 6.150631023526165e-16 0
2.999999999999994 5.381955115813134e-16 0
3.000000000000002 -6.846563311666549e-16 0
3.000000000000004 -1.589056494002867e-16 0
2.999999999999996 1.871181640426714e-15 0
2.999999999999995 5.77194101511321e-16 0
3.000000000000016 -6.589424173452621e-15 0
2.99999999999999 -3.327360278785113e-15 0
2.999999999999948 1.43300185842574e-14 0
3.000000000000135 1.004606593439333e-14 0
2.999999999999993 -1.290829101729533e-14 0
2.999999999999535 -2.549999470833559e-14 0
3.000000000000714 -3.204201651356754e-14 0
3.000000000000274 5.495006279078948e-14 0
2.999999999997343 1.561071084999956e-13 0
3.000000000004416 -6.53872898679776e-14 0
2.999999999999988 -2.265779179170097e-13 0
2.99999999998179 -2.43667171088395e-13 0
3.000000000041782 -2.954354025986825e-13 0
2.999999999994169 2.224319619747697e-12 0
2.999999999822716 1.628767306063266e-12 0
3.000000000345474 -9.601368823517465e-12 0
3.000000000123356 4.821422046740054e-14 0
2.999999998444441 3.43285724705013e-11 0
3.000000001543458 -2.016287586968373e-11 0
3.000000004286218 -1.690514189004053e-10 0
2.999999992501265 9.020054024626646e-11 0
2.999999985454554 1.015805533983047e-09 0
3.000000029926733 -1.428721739526436e-10 0
3.000000058147614 -4.836747933827583e-09 0
2.999999895584402 -2.850559450304833e-10 0
2.999999752078554 1.656450154773211e-08 0
3.046436530584722 7.518768461528884e-05 0
3.000000188736928 1.906271962272124e-09 0
2.999887897514541 -2.75636278039277e-05 0
2.999917374485508 4.321612289682901e-05 0
2.999910001764246 3.591750489743921e-05 0
3.000020996523998 -4.530345918801362e-06 0
3.000000004047241 1.18255370756781e-10 0
2.999999999981142 8.850115812899294e-13 0
2.999999997861186 -1.828608414013285e-08 0
3.000000000000068 -5.055718245102808e-14 0
2.999999999999999 3.882790316492957e-16 0
3.000025503195766 -4.199187728388678e-06 0
3.000001039124757 -1.460005628512611e-06 0
3.00000019905829 -1.230196832968684e-06 0
2.999999999999537 9.103384171562298e-14 0
2.999999999329321 2.28015320254855e-11 0
3.000000000008422 -1.099883094525916e-12 0
2.999999940779744 3.411349237577887e-08 0
2.999999989696557 -9.986303281760691e-08 0
2.999999994966089 -2.689554055882483e-08 0
3.000001149756023 -1.520288209287788e-08 0
2.999999905908788 9.167154956012753e-08 0
2.999999774740019 -1.130277419036295e-08 0
3.000001108778943 1.842560789868163e-09 0
2.999999998805994 3.559896334514883e-10 0
2.999999999990057 1.749112480752796e-12 0
2.999999999999959 3.729350281112186e-15 0
3.000000000000024 7.425972949183599e-15 0
2.999998296585373 6.989590258702924e-07 0
2.999998867802039 6.624726778214858e-07 0
2.999999999997656 -1.593885822476609e-13 0
2.999999999906716 1.775195561619536e-11 0
2.999999895626009 2.215039773196275e-09 0
3.000017263208508 1.892473753685421e-05 0
3.000000688688607 4.001909987510778e-07 0
2.999999943378127 -3.965818510410413e-08 0
3.000001682337646 1.823835893940462e-07 0
3.000000003099737 3.438039013445659e-08 0
3.000000008268025 3.639736904387607e-08 0
2.999999999274554 1.470644353612396e-08 0
2.999999984322081 3.314586902188128e-08 0
3.000000003326391 -6.202466060579501e-09 0
2.999999983398916 2.854767803790732e-08 0
3.000000003890987 -5.770871548249034e-09 0
3.000000004622611 -3.984119964956149e-09 0
2.999999998327643 1.53962937606338e-09 0
3.000000006014326 -6.090701741447273e-09 0
2.999999999056188 9.770150812441026e-10 0
2.99999999688918 1.954470967874817e-09 0
1.486969286254706 0.03194554901563468 0
2.999661821248204 4.652805165241688e-05 0
3.000000000835716 -5.952851339232097e-10 0
2.999997914932559 -2.983215991407603e-07 0
3.000140100806206 -8.353566564866236e-06 0
3.000000421633307 -1.165247333851595e-07 0
3.002706566181395 -0.0005993657286505608 0
2.999999999951756 4.167701520184648e-10 0
3.000001421820078 -3.083168721077279e-09 0
2.999999652069957 1.981767462175706e-09 0
2.999997044182056 1.905277887563266e-08 0
2.999988163793048 -1.039482039362451e-07 0
2.934324564980468 0.02688089937030549 0
2.999999999740626 -8.777965843835227e-09 0
3.000003995935416 8.396343823831088e-08 0
3.00000000009491 8.711139223266568e-11 0
2.999999986511829 3.116195731508208e-09 0
3.000020417808571 -1.896799971101613e-06 0
2.99999540689973 5.549465926226455e-07 0
3.000000000001093 1.450299040580165e-13 0
2.999999999985157 -6.320042292816646e-13 0
2.999999999999903 -2.16950964976869e-13 0
2.999999999999992 3.842024925866374e-16 0
2.999999999999972 4.044321331461588e-15 0
2.999999999996215 1.097055221242811e-12 0
2.999999999997025 -7.709202458213795e-14 0
3.00000000000002 3.422651217547287e-15 0
3.000000000496295 -4.030983437719149e-11 0
3.000000000036256 -4.086589431985002e-13 0
2.999999999999966 1.119003905939177e-15 0
2.999998344798359 1.652194279881156e-07 0
3.000000003907234 -1.446804595746586e-10 0
3.000000000205017 -1.19749521268459e-10 0
3.000000000000087 4.336549539301402e-14 0
3.000000000000001 6.200378478687242e-15 0
2.999999998027157 1.153097433082652e-10 0
2.999999999995668 1.642779734303762e-13 0
2.999999999999712 8.451886268459562e-14 0
3.000000000009274 1.307517530527247e-12 0
3.000000000000001 -5.081840288081991e-16 0
3.000000000000002 -1.400611502535244e-15 0
3.000000000000159 -1.452110223256947e-13 0
3.000000000187443 3.571358202651122e-09 0
3.000000000000052 1.82444124366922e-14 0
2.999999999999998 6.457559378017842e-16 0
2.999999999999246 9.791993978378635e-14 0
2.99999999990408 2.276742963668809e-11 0
3.000000000330525 4.194579731578509e-12 0
3.000000000035946 -5.799252689421764e-13 0
3.00000000360125 -6.434292643621411e-09 0
3.000000037898148 -9.994029087337467e-09 0
2.999999974717855 2.760043797059108e-08 0
3.000102141680058 7.449893823206208e-07 0
2.997253442505275 0.0001245561755200185 0
2.999999989039593 3.474014712407547e-10 0
3.000000474611001 -1.020927495356644e-07 0
3.000000000607443 -5.813879707530471e-10 0
3.000920364105347 -0.001459064177952047 0
2.999999990553417 -1.946474756369715e-08 0
2.999999999750139 8.469750302383261e-11 0
3.000000003039461 -3.501080331603981e-09 0
2.999999996229121 2.252498075185834e-09 0
2.999991567673153 -1.204871626905925e-07 0
2.999999932042525 3.577496187261514e-08 0
2.99999992385604 -1.913890078579572e-09 0
2.999999999063414 1.681097037452392e-09 0
2.999999999998988 2.252849999682452e-11 0
3.000000054249765 -1.122741379050452e-07 0
3.000056154450396 -2.347546908125736e-06 0
2.999999999879614 1.019048275447158e-10 0
2.999998015605649 1.055674011466355e-07 0
2.999994909662565 2.764640912927402e-06 0
2.999998531715784 2.136843627865171e-07 0
3.000001121026862 -2.317874977829242e-07 0
2.999988424040319 1.68785723011643e-07 0
3.000052685926963 2.295285443581202e-06 0
3.039252176988662 0.0003022024061928987 0
3.026577048866205 -0.0003527793950013929 0
2.999999750899354 3.53410078552843e-07 0
3.000000000079465 -4.236169124835471e-11 0
3.000008782187305 -7.936291333544747e-06 0
2.999986820820269 7.595030744349539e-05 0
3.00002313575029 1.616817385205352e-05 0
3.000002825067212 -1.260647531239642e-06 0
3.000000047238509 1.776360194986689e-08 0
2.832836735702954 0.05108618802722452 0
2.99999792914043 1.074512753561351e-06 0
2.999999930777448 7.345021708012718e-11 0
2.999999970511422 1.306271372884759e-08 0
2.999999977325223 1.438556243808215e-08 0
3.000001301032593 -2.754308748959696e-07 0
2.999999999994896 -5.019489961371549e-12 0
2.999845939491843 9.036955139058231e-05 0
2.999991531150963 6.448770685778688e-05 0
2.999916585766943 -0.0003442010619169893 0
3.000085800442376 3.757116652394508e-06 0
3.000057387857632 -9.977923481605879e-08 0
2.999999999989995 8.012500083311648e-12 0
2.999999999986043 4.897606212037407e-11 0
2.999999791926511 1.450898422636175e-08 0
3.000000042820632 -4.255464270405339e-09 0
3.000000032292995 -8.821056230793286e-10 0
2.999999989069901 8.816559849252468e-10 0
2.999999991164395 3.381359655290176e-10 0
3.000000003670095 -1.730746200300946e-10 0
3.000000001787454 -7.778032138927162e-11 0
2.999999998713795 4.725985411303498e-11 0
3.000000000047694 1.273821988024291e-11 0
3.00000000023926 -1.988828393013955e-11 0
2.999999999856732 2.221496313556306e-12 0
3.000000000006878 5.882935434155778e-12 0
3.000000000037875 -2.637716984363832e-12 0
2.999999999984739 -5.278297263132918e-13 0
2.999999999996314 1.037566491180995e-12 0
3.000000000004017 -3.76566025770814e-13 0
2.999999999999688 -2.945219423769621e-13 0
2.999999999999464 2.276019775988468e-13 0
3.000000000000034 1.024402467100959e-13 0
3.000000000000067 -8.337924976521423e-14 0
3.000000000000056 -4.937187984840429e-14 0
2.999999999999964 3.195484162479371e-14 0
2.999999999999982 2.005582535453104e-14 0
3.000000000000016 -1.500738906995182e-14 0
2.999999999999999 -4.306150582417207e-15 0
2.999999999999997 6.592795086340687e-15 0
3.000000000000004 -7.200573379801569e-16 0
3.000000000000002 -2.398165045557879e-15 0
2.999999999999999 1.621325043282609e-15 0
3 8.083077422313856e-16 0
3.000000000000003 -1.091858254781993e-15 0
3.000000000000002 -5.262455825148294e-16 0
2.999999999999996 1.590819272996981e-15 0
2.999999999999997 1.150632539031421e-15 0
3.000000000000014 -4.85949043340003e-15 0
3.000000000000007 -3.137298130796153e-15 0
2.999999999999962 1.345315154444076e-14 0
2.999999999999995 4.518866811354904e-15 0
3.000000000000056 -2.637476854396692e-14 0
2.999999999999976 3.465323661885212e-15 0
3.000000000000032 1.157954935297369e-14 0
3.000000000000103 -4.988565992944556e-14 0
2.999999999999589 1.549755396496849e-13 0
2.999999999999853 1.465672215047947e-13 0
3.00000000000099 -6.629905094599413e-13 0
2.999999999999796 -1.454989920518291e-13 0
2.999999999999664 1.209704908490683e-12 0
3.00000000000115 -4.574566541046397e-13 0
2.999999999995704 4.594153075976229e-13 0
2.999999999999067 1.992505741707299e-12 0
3.000000000009499 -8.505495121619193e-12 0
2.999999999995481 -1.820265553602847e-12 0
3.000000000007521 1.703191001037197e-11 0
3.000000000009497 -6.607376691095369e-12 0
2.999999999944783 1.17749332747065e-11 0
3.000000000015158 1.754370057456227e-11 0
3.00000000000334 -9.622096363867129e-11 0
2.9999999999455 7.994323825203495e-12 0
3.000000000256066 6.469893120002603e-11 0
2.999999999960477 -7.809809473591304e-11 0
2.999999999894354 3.523616229762248e-10 0
3.000000000206335 6.094605260094565e-12 0
2.999999999054318 -4.41036793750102e-10 0
3.000000000172942 2.81611256701022e-10 0
3.000000000142883 -1.08001787262598e-09 0
2.999999999385565 -1.048722563660689e-10 0
3.000000003125248 1.696955889905955e-09 0
2.99999999917776 -9.143188904155659e-10 0
3.000000001506689 3.880594321297999e-09 0
3.000000000936561 3.068723026314319e-12 0
2.999999995011378 -2.219638077999881e-09 0
3.000000002343747 2.442621029130011e-09 0
3.00000183278271 1.100859786660147e-06 0
3.000092237470262 -3.665278857439116e-06 0
3.000000014930974 -8.233171163012682e-09 0
2.999999996158395 4.843862525356503e-10 0
2.999971880347107 4.262335844347668e-06 0
3.000103582087475 -1.944314829609831e-05 0
2.999947222268873 2.975418257123043e-06 0
2.999999992747235 -1.061800671482697e-08 0
3.000000001579868 2.738160608786744e-09 0
3.000000015462505 7.892311814616866e-09 0
2.999999721655442 6.065511665813484e-08 0
2.999822777497193 -6.772161012566493e-07 0
3.0000941273633 -4.87037600385235e-06 0
2.999181899036721 -3.542866319361127e-05 0
2.999981820191327 -1.318130826213535e-06 0
3.000050755676186 1.761991556720719e-06 0
3.000101494077328 1.853286645607256e-06 0
2.999991908315582 -6.84791690580155e-07 0
3.000057087979124 -3.959286407251459e-06 0
2.999988511878657 -2.425572093031812e-07 0
3.000009550029291 -1.198922417526918e-07 0
2.999995246393289 6.70544740181037e-08 0
3.000121145681274 2.074366902312145e-07 0
3.000001206860058 2.161177033697785e-07 0
3.00000104501108 -8.667517905030612e-09 0
3.000000287770042 -7.840199695327617e-08 0
2.999999052383121 9.074394853752722e-07 0
3.000000013368314 -4.411981387896766e-09 0
2.999999999967765 1.466139120974378e-10 0
3.000000100246607 1.074268800101609e-08 0
3.000000000000099 1.342109685696712e-14 0
2.760498225321635 -0.003357552892404461 0
3.000000125883512 -3.910412988760708e-08 0
2.999999814311368 -5.329790050848367e-09 0
2.999999885388898 2.861671691043332e-09 0