<?xml version="1.0"?>
<VTKFile type="UnstructuredGrid">
  <UnstructuredGrid>
  <Piece NumberOfPoints="1224"  NumberOfCells="2290">
    <Points>
      <DataArray type="Float64" NumberOfComponents="3" format="ascii">
0 0 0
0.6 0 0
0.6 0.2 0
3 0.2 0
3 1 0
0 1 0
0.05454545454535233 0 0
0.1090909090906768 0 0
0.1636363636359771 0 0
0.2181818181812728 0 0
0.2727272727265793 0 0
0.3272727272720317 0 0
0.3818181818176247 0 0
0.4363636363632168 0 0
0.4909090909088285 0 0
0.5454545454544089 0 0
0.6 0.03999999999991203 0
0.6 0.07999999999979179 0
0.6 0.1199999999997886 0
0.6 0.1599999999998948 0
0.6510638297871261 0.2 0
0.7021276595742618 0.2 0
0.7531914893613819 0.2 0
0.8042553191485237 0.2 0
0.8553191489356438 0.2 0
0.9063829787228289 0.2 0
0.957446808509926 0.2 0
1.008510638297009 0.2 0
1.059574468084092 0.2 0
1.110638297871174 0.2 0
1.161702127658257 0.2 0
1.21276595744534 0.2 0
1.263829787232422 0.2 0
1.314893617019505 0.2 0
1.365957446806588 0.2 0
1.417021276593671 0.2 0
1.468085106380754 0.2 0
1.519148936167923 0.2 0
1.570212765955006 0.2 0
1.621276595742088 0.2 0
1.672340425529171 0.2 0
1.723404255316254 0.2 0
1.774468085103337 0.2 0
1.825531914890624 0.2 0
1.876595744677951 0.2 0
1.927659574465349 0.2 0
1.978723404252714 0.2 0
2.029787234040074 0.2 0
2.080851063827477 0.2 0
2.131914893614798 0.2 0
2.182978723402204 0.2 0
2.234042553189523 0.2 0
2.285106382976928 0.2 0
2.336170212764247 0.2 0
2.387234042551653 0.2 0
2.438297872338975 0.2 0
2.489361702126377 0.2 0
2.540425531913739 0.2 0
2.591489361701102 0.2 0
2.642553191488421 0.2 0
2.693617021275827 0.2 0
2.744680851063146 0.2 0
2.795744680850551 0.2 0
2.84680851063787 0.2 0
2.897872340425276 0.2 0
2.948936170212618 0.2 0
3 0.2533333333332341 0
3 0.3066666666664725 0
3 0.3599999999996274 0
3 0.413333333332804 0
3 0.4666666666659806 0
3 0.5199999999991571 0
3 0.5733333333323336 0
3 0.6266666666656895 0
3 0.6799999999991551 0
3 0.7333333333326146 0
3 0.7866666666660802 0
3 0.8399999999995775 0
3 0.8933333333330373 0
3 0.9466666666664969 0
2.949152542373491 1 0
2.898305084746983 1 0
2.847457627120474 1 0
2.796610169493702 1 0
2.745762711866469 1 0
2.694915254239208 1 0
2.644067796611963 1 0
2.593220338985156 1 0
2.542372881358647 1 0
2.491525423732018 1 0
2.44067796610481 1 0
2.389830508477549 1 0
2.338983050850287 1 0
2.288135593223026 1 0
2.237288135595765 1 0
2.186440677968504 1 0
2.135593220341243 1 0
2.084745762713982 1 0
2.033898305086721 1 0
1.983050847459614 1 0
1.932203389832729 1 0
1.881355932205844 1 0
1.830508474578958 1 0
1.779661016952073 1 0
1.728813559325189 1 0
1.677966101698303 1 0
1.627118644071418 1 0
1.576271186444533 1 0
1.525423728817648 1 0
1.474576271190575 1 0
1.423728813563314 1 0
1.372881355936053 1 0
1.322033898308791 1 0
1.27118644068153 1 0
1.220338983054269 1 0
1.169491525427008 1 0
1.118644067799747 1 0
1.067796610172485 1 0
1.016949152545224 1 0
0.9661016949179628 1 0
0.9152542372907018 1 0
0.8644067796634407 1 0
0.8135593220361792 1 0
0.7627118644089181 1 0
0.7118644067816566 1 0
0.661016949154396 1 0
0.6101694915271345 1 0
0.5593220338998739 1 0
0.5084745762726124 1 0
0.4576271186453518 1 0
0.4067796610180903 1 0
0.3559322033908292 1 0
0.3050847457635677 1 0
0.2542372881363066 1 0
0.2033898305090456 1 0
0.1525423728817841 1 0
0.101694915254523 1 0
0.05084745762726151 1 0
0 0.9473684210524125 0
0 0.8947368421048248 0
0 0.8421052631576025 0
0 0.7894736842105994 0
0 0.7368421052635962 0
0 0.6842105263165927 0
0 0.6315789473695894 0
0 0.5789473684225861 0
0 0.5263157894755828 0
0 0.4736842105282874 0
0 0.4210526315806998 0
0 0.3684210526331123 0
0 0.3157894736855248 0
0 0.2631578947379374 0
0 0.21052631579035 0
0 0.1578947368427625 0
0 0.1052631578951749 0
0 0.05263157894758741 0
0.4374856279758046 0.955462795473483 0
0.625531914893563 0.2394317949808221 0
0.7891616249544176 0.9557759867023439 0
2.570562443351098 0.9559758769411787 0
2.364406779663917 0.9559648099769389 0
2.161016949154874 0.9559648099769389 0
1.957627118646171 0.9559648099772646 0
1.756856606547665 0.9560078743553572 0
1.553415402058453 0.9561420672712786 0
1.347457627122422 0.95627738856474 0
1.144067796613377 0.9563034567995272 0
0.04146670856173688 0.5498854761242812 0
0.9828861012149002 0.2442383967812095 0
2.465390809289578 0.2421522008426663 0
2.259572257543314 0.243586373321511 0
2.055319178697841 0.24363095694403 0
1.851066099915384 0.2436741865527954 0
1.646810778591931 0.2437170671454607 0
1.442550972205278 0.2437587738062726 0
1.238275543433999 0.2442249255777628 0
0.5808319854219957 0.2417757800606361 0
0.6039807146029165 0.2785115072887754 0
2.951522810440164 0.5995349944823752 0
0.5591131416216563 0.2791940688436214 0
0.5817690965011905 0.3180386921514113 0
0.5363223429032008 0.3181181454258206 0
0.5590799034518541 0.3577335228902347 0
2.671507320584846 0.2416532643303031 0
0.5129751095268966 0.3576683284772433 0
0.5360042291720796 0.3976917483469583 0
0.5824744072527975 0.3977458985417416 0
0.5593202208963615 0.4382323507424581 0
0.6062221806132498 0.4382172989803606 0
0.5831398502988122 0.4790536480492864 0
0.630245509211025 0.4792447281197085 0
0.5373735766893435 0.4817209888486334 0
0.2780994584865757 0.9660670791366374 0
0.9407829849899363 0.9559852449915113 0
0.6069171020766708 0.5203953730037822 0
0.6544691944766102 0.5205851219036783 0
2.724115018794794 0.9563165682871465 0
0.04341732373162228 0.2894490564426765 0
0.6304562046384772 0.5622881188475496 0
0.6786259291441818 0.5621981517123112 0
0.03938236249337418 0.7091098825652095 0
0.2999999999993055 0.04723774929726795 0
0.7024556039582556 0.5200372393771872 0
0.726826368578132 0.562505099575485 0
0.6545296629344706 0.6041261864689124 0
0.6061411599039735 0.6041581669226386 0
2.954333097254252 0.4393531299125908 0
0.7512905139641642 0.5199435586712576 0
0.7757938242112172 0.5624873891767795 0
0.4902278874550028 0.3174350849704655 0
0.4661669324669476 0.3576870257641042 0
0.8003371868304782 0.5195844107098163 0
0.8251782158071723 0.5621174250913318 0
0.6300572939290072 0.6460588488486728 0
0.581677101888915 0.6462390077748084 0
0.7994632498085218 0.6067218912904607 0
0.850068894442807 0.6047738158182728 0
0.8747482025846163 0.5617915498272615 0
0.8998102571129438 0.6045430073239006 0
0.924588798996443 0.5614360364847856 0
0.9497125983499418 0.6046345614192383 0
0.9744389394813738 0.5613114208485291 0
0.9997656958801404 0.604758732930365 0
1.024028015453996 0.5597386087889248 0
1.050046148741532 0.6042836632406788 0
1.075213347289947 0.5607219500906248 0
1.100604808237692 0.6043040651294929 0
1.125727120818654 0.5598592244124957 0
1.151165990249003 0.6040638744783449 0
1.176319565514503 0.5595216793632644 0
1.201793840633129 0.6038781229769293 0
1.226960854257978 0.5600604284234054 0
1.252470704079807 0.6038664424080111 0
1.277198987313166 0.55874807111347 0
1.303148970446812 0.6035341865995129 0
1.328130525802366 0.5586520846649797 0
1.353966012915828 0.6034054551655909 0
1.379205474149696 0.558835304845746 0
1.404820923589671 0.6032503772964327 0
1.430092956912838 0.5587079795953892 0
1.455686300628245 0.6030926920218221 0
1.480963489515269 0.5580480170404921 0
1.506562983627252 0.6028436706904448 0
1.531847734917255 0.5577680566445021 0
1.557453558526421 0.6026435181305781 0
1.582745756648754 0.5575726351194972 0
1.608358176126191 0.6024617369905624 0
1.633656322435163 0.5573842056888257 0
1.659277805706528 0.6022873884346892 0
1.684577462424181 0.5572075399874397 0
1.710203504633815 0.6021111834258887 0
1.735506494091908 0.5570246051384745 0
1.761134606493805 0.6019307913070558 0
1.786441498808711 0.5568475628142857 0
1.812072359676459 0.6017522495250318 0
1.837381834584306 0.5566653603575672 0
1.863017119880456 0.601574020443024 0
1.888326681794851 0.5564884669211013 0
1.913963858781491 0.601395113412113 0
1.939274704592935 0.5563067813822595 0
1.964908406083961 0.6012129143420911 0
1.990224566339525 0.5561292537946573 0
2.015859329864652 0.601032757987411 0
2.041177190815608 0.5559477304122714 0
2.066818109147928 0.600855564813206 0
2.09213259478423 0.5557710179709322 0
2.117774443326183 0.6006760179252703 0
2.143088896138059 0.5555900146741853 0
2.168729305797513 0.6004921726308964 0
2.194045774061603 0.5554125217101814 0
2.219686577151481 0.6003111949874665 0
2.245003702950199 0.5552312296013228 0
2.270641766736839 0.6001298880828497 0
2.295962173634055 0.5550546947866846 0
2.321601310982481 0.599950595338254 0
2.346923922781879 0.5548708301001631 0
2.372568004594504 0.5997713467128002 0
2.397895756972162 0.5547000681173012 0
2.423546697517365 0.5996004731097838 0
2.448884659670238 0.5545095609010697 0
2.474538141419978 0.5994220729206983 0
2.499902931415869 0.5543494429014709 0
2.525546234724433 0.5993228147833797 0
2.550973655834774 0.5541346321759457 0
2.576685338327378 0.5992395038842441 0
2.602182482443039 0.5540180644105763 0
2.958944511946492 0.7598964409357507 0
2.628014314012249 0.5990918128353608 0
0.4429170888396284 0.3159793431387367 0
0.4184631156771032 0.357715436029677 0
0.3946070818022522 0.3157219358498637 0
0.3697276561976696 0.3576135465858128 0
2.449044355814981 0.643990885448769 0
2.24531935830005 0.6444881680698032 0
1.024857369602972 0.6487487015028032 0
2.041498164113345 0.6452136474256573 0
1.837701628146142 0.6459229900926835 0
0.3455853078837237 0.3150377509381005 0
0.3204780172155196 0.3574251905568473 0
0.3449438693484468 0.4002519798591844 0
1.633970683060678 0.6466170330762969 0
1.227333380683899 0.6479317947648683 0
1.430444030483603 0.6473399689389928 0
0.875196942148915 0.6483605753517908 0
0.6057010339261732 0.6883083412871458 0
0.5571396249147901 0.6885103796531055 0
2.653543252321963 0.5527758280498023 0
1.099471497978971 0.5148848291986879 0
2.602427017093663 0.6438096025956825 0
2.653851606946175 0.6437140715169269 0
1.353138019780104 0.5138574114565649 0
1.556762689169365 0.5115839513085039 0
1.760509743411542 0.5109012431757174 0
1.964341412665395 0.510388685431229 0
0.2953909602266698 0.4001745965167012 0
[...]
    <PointData>
      <DataArray type="Float64" NumberOfComponents="3" Name="Velocity" format="ascii">
2.999999838412306 0 0
0 0 0
0 0 0
3.186830900018865 0 0
3.18956174256322 0 0
3.000000000000049 0 0
3.000000163259138 0 0
2.999999530522824 0 0
3.000000781241988 0 0
3.000002356772309 0 0
2.999965712241329 0 0
3.000330650353766 0 0
2.998118915059608 0 0
3.003020303819294 0 0
3.062554225279317 0 0
2.366223437534974 0 0
0 0.007943440839600024 0
0 -0.003534767625824269 0
0 0.01222387601943977 0
0 0.1064791292322895 0
2.109035475091309 0 0
2.811174501700291 0 0
2.982668699443844 0 0
3.004197095141934 0 0
3.00040728952747 0 0
2.999717426758353 0 0
3.000056513600661 0 0
3.000001552315168 0 0
2.999996555118148 0 0
3.000001380479944 0 0
2.999999545749038 0 0
3.000000123710123 0 0
2.999999974285497 0 0
3.000000005945925 0 0
2.999999997846321 0 0
3.000000000805101 0 0
2.999999999755593 0 0
3.000000000060417 0 0
2.999999999987917 0 0
3.00000000000175 0 0
2.999999999999926 0 0
2.999999999999939 0 0
3.000000000000027 0 0
2.999999999999991 0 0
3.000000000000006 0 0
2.999999999999986 0 0
3.000000000000034 0 0
2.999999999999998 0 0
2.999999999999617 0 0
3.000000000001581 0 0
2.999999999999059 0 0
2.999999999978658 0 0
3.000000000109091 0 0
2.999999999876701 0 0
2.999999998870233 0 0
3.00000000682314 0 0
2.999999974268322 0 0
3.000000078335578 0 0
2.999999867422226 0 0
2.999999518140248 0 0
3.000005245682805 0 0
2.999973528292194 0 0
3.000072954013544 0 0
3.000059938836482 0 0
2.99792904449848 0 0
3.018821527545691 0 0
3.189173966316887 0.0005788128763931827 0
3.179307027231329 -0.0002642406070549957 0
3.180517901442884 9.885154409782113e-05 0
3.180200120531691 -8.697645193723956e-05 0
3.182158298064833 -0.0002253156342809 0
3.184222527832972 -5.047506951363457e-05 0
3.182462693107452 0.0002959988863498489 0
3.18177188795278 -0.0004307161686356499 0
3.185329756697166 -3.348840069489671e-05 0
3.183123168274406 0.0001080909331015656 0
3.18417972524356 9.831851162267813e-05 0
3.180740049688557 0.0003182729576112984 0
3.179948443814727 -0.0005997770762554603 0
3.192299157884622 -0.0002775132265859605 0
3.015375364581525 0 0
2.998063183420945 0 0
3.000012800225616 0 0
3.000054894849399 0 0
2.999980864685858 0 0
3.000004191596746 0 0
2.999999533816316 0 0
2.999999941053543 0 0
3.000000050696047 0 0
2.999999982500858 0 0
3.000000004454229 0 0
2.999999999492629 0 0
2.999999999851585 0 0
3.000000000069798 0 0
2.999999999990809 0 0
2.999999999997997 0 0
3.00000000000123 0 0
2.999999999999733 0 0
3.000000000000015 0 0
3.000000000000005 0 0
2.999999999999997 0 0
3.000000000000001 0 0
2.999999999999999 0 0
3 0 0
3 0 0
3 0 0
3 0 0
3 0 0
3.000000000000003 0 0
2.999999999999995 0 0
2.999999999999996 0 0
3.000000000000024 0 0
2.999999999999991 0 0
2.999999999999882 0 0
3.000000000000151 0 0
3.000000000000394 0 0
2.999999999999278 0 0
2.999999999998664 0 0
3.000000000002233 0 0
3.000000000004602 0 0
2.999999999997131 0 0
2.99999999998578 0 0
2.999999999990351 0 0
3.000000000014947 0 0
3.000000000034222 0 0
3.000000000028371 0 0
3.000000000017724 0 0
3.000000000017847 0 0
3.000000000007851 0 0
2.999999999998864 0 0
3.000000000000124 0 0
3.000000000000029 0 0
2.999999999999378 0 0
3.000000000000496 0 0
2.999999999999726 0 0
3.000000000000175 0 0
2.999999999999939 0 0
3.000000000000003 0 0
3.000000000000283 0 0
2.999999999998999 0 0
3.000000000000471 0 0
3.00000000000653 0 0
2.999999999986957 0 0
3.000000000003144 0 0
2.999999999959083 0 0
3.000000000748366 0 0
3.000000000052837 0 0
2.999999999054624 0 0
2.99999999728236 0 0
3.000000000189214 0 0
3.000000017768208 0 0
3.000000026591928 0 0
3.000000033762884 0 0
3.000000034541066 0 0
2.999999999462583 0 0
2.999999972255283 0 0
3.000000000000984 1.347485734019115e-11 0
2.158294007575323 0.2378784025860476 0
2.999999999999774 1.187796990743109e-11 0
3.000000099490904 9.126105753501285e-09 0
3.000000000660279 1.943208032728957e-11 0
2.999999999998608 2.234610290753755e-13 0
3.000000000000002 -1.527133309364664e-15 0
3 6.154374190738766e-17 0
2.999999999999997 1.177850412707404e-15 0
2.999999999999949 -1.223322291516007e-14 0
2.999999999999757 -5.624234903766215e-13 0
2.999999999247354 2.080369538627376e-10 0
3.000030159248375 -3.235003942576169e-06 0
3.000000006366096 -7.680079063644381e-10 0
2.999999999991357 -6.46852618341192e-13 0
3.000000000000238 -7.558615393997114e-15 0
3 4.386000860733029e-16 0
2.999999999998529 1.584774563244551e-14 0
3.000000000217595 -2.482238045359471e-12 0
3.000000057945212 -2.469441472723834e-09 0
2.371009476137141 0.2105994930885958 0
2.788741134421273 0.1345493762125499 0
3.025983106847736 -5.488030241581533e-05 0
2.913613004512798 0.05307262546682828 0
2.984760564793072 0.01935326822309037 0
3.000470457523699 0.00186854599005223 0
3.002025848738872 -0.001163777344703613 0
3.000003108595308 -3.4841226170217e-08 0
3.000694757864008 -0.0006454616836620243 0
3.000013081961137 -0.0001676091222914122 0
3.000476233074582 -0.0008713481402618928 0
2.999900294983947 9.819332517186002e-05 0
2.999899186573737 7.045799271805055e-05 0
2.999991025252924 4.015222075591664e-05 0
2.999990020420231 7.553282319458717e-05 0
3.000007896253123 9.402402192767781e-07 0
2.99999999999897 4.646781163080073e-13 0
2.999999999994523 -6.135403552914403e-12 0
3.000004906129889 -1.425555774195052e-05 0
3.000003384676243 -1.268342676695317e-05 0
2.999993402256588 5.370630603262819e-07 0
2.999999989970376 1.189006577083847e-09 0
2.999999589639978 -2.279498828935712e-06 0
2.999998825927142 -1.608484272971498e-06 0
3.000000000023279 -2.27539216149742e-12 0
3.000075289437065 -3.818373320315573e-06 0
3.000002316199512 -1.572884237075757e-05 0
2.999998820271508 1.515895500424975e-06 0
3.000000103181311 1.656817190041624e-06 0
2.99999995731464 1.305345169664424e-06 0
3.034214537379524 -8.754928260816323e-05 0
2.999997387613534 -1.20109083199012e-05 0
3.000000001708441 2.375796547954517e-06 0
3.001984238655603 -0.001030155055642135 0
2.999774051052586 6.962226017410636e-05 0
2.999996268788869 -2.354759592622866e-06 0
3.000000752932202 1.197700021917284e-06 0
3.000000003745259 -2.973999223214043e-07 0
3.00000002896441 -3.319298644037175e-07 0
3.00000018581839 -3.319463929742516e-07 0
2.999999865068874 -3.801945942518144e-07 0
3.000000478512788 -1.799814037946461e-07 0
2.999999842898714 -2.338262306375155e-08 0
2.999999990288145 -4.467204090754741e-07 0
2.999999974486347 1.201490742630255e-07 0
2.999999825136552 3.535706727833085e-08 0
3.00000004997855 3.4883593623764e-09 0
2.999999956264036 1.074282493107475e-07 0
3.000000017588021 -3.091123251291628e-08 0
3.00000006680547 -2.859927980495046e-08 0
2.99999998356565 4.041754374510678e-09 0
3.000000006489778 -1.629560225499124e-08 0
2.999999997087812 5.676869251893405e-09 0
2.999999982593962 9.58033674518627e-09 0
3.000000004989344 -2.913845235834092e-09 0
3.000000005094745 -1.384397443857968e-09 0
2.999999998492005 4.086623075786995e-10 0
3.000000000836338 -6.018725138612946e-10 0
2.999999999874623 1.677765407316747e-10 0
2.999999998860795 4.109983220383584e-10 0
3.000000000295356 -1.267554112422299e-10 0
3.000000000501284 -1.421419453199394e-10 0
2.999999999849723 4.776230888374623e-11 0
2.999999999838586 3.848839672192143e-11 0
3.000000000052626 -1.366765095026214e-11 0
3.000000000045411 -9.502140481032825e-12 0
2.999999999984478 3.501579635172891e-12 0
2.999999999988078 2.250054762568683e-12 0
3.000000000004246 -8.759349456432073e-13 0
3.000000000003025 -5.163249872283483e-13 0
2.999999999998846 2.230413769238795e-13 0
2.999999999999264 1.111236630369687e-13 0
3.000000000000318 -5.660388637797548e-14 0
3.000000000000157 -2.033813377105147e-14 0
2.999999999999916 1.421359839810676e-14 0
2.999999999999972 2.622048407559297e-15 0
3.000000000000022 -2.919136430909523e-15 0
3.000000000000001 -7.628902461105681e-17 0
2.999999999999994 6.592227431862375e-16 0
2.999999999999999 -1.352020940275292e-16 0
3.000000000000002 -4.709818724684957e-16 0
3.000000000000001 6.36597933368862e-17 0
2.999999999999997 1.129076345574744e-15 0
2.999999999999997 2.743986151788938e-17 0
3.000000000000012 -4.17609412111922e-15 0
2.999999999999996 -1.581030475924573e-15 0
2.999999999999954 9.395337532317754e-15 0
3.000000000000097 6.258959790742456e-15 0
3.000000000000049 -7.785742900649422e-15 0
2.999999999999554 -2.090394743642416e-14 0
3.000000000000477 -3.016667289482083e-14 0
3.000000000000797 6.317869848072831e-14 0
2.999999999997001 1.495422225677975e-13 0
3.000000000002603 -1.453159992352298e-13 0
3.000000000006366 -2.684014323767382e-13 0
2.999999999976851 7.493297776644539e-14 0
3.000000000021608 -2.129132295806496e-13 0
3.000000000055431 1.556703967375749e-12 0
2.999999999782655 2.699537097421823e-12 0
3.000000000180238 -1.080020995835024e-11 0
3.000000000678393 -9.067571224487977e-12 0
2.999999998080196 5.020689536356026e-11 0
2.999999999748852 2.627432274555342e-11 0
3.000000007555435 -2.321828476755072e-10 0
2.999999995856916 -1.064516495883776e-10 0
2.999999976694865 1.082800276543376e-09 0
3.000000016455699 5.252647875217475e-10 0
3.00000007473732 -3.786017247696741e-09 0
2.999999981539442 -1.742424714286017e-09 0
2.999999707082735 7.828584196204497e-09 0
3.042580534407677 6.207566526044874e-05 0
2.999999819811624 3.482677973864451e-09 0
2.99972237256427 4.17212647420164e-05 0
2.999957218976601 3.294120553446068e-05 0
2.999937354458192 3.172677652314279e-05 0
3.000026343079135 -8.451994787314831e-06 0
3.000000006901515 1.519739483384418e-10 0
2.999999999977846 8.240556424601536e-13 0
2.999999985349578 -2.828242731487048e-09 0
3.00000000000005 -3.5674912277489e-14 0
3.000000000000003 -1.882406033335963e-16 0
3.000031002993159 -7.071962898379141e-06 0
2.999996712213242 -1.179330878778282e-07 0
2.999996980936499 1.875927099313474e-07 0
3.000000000000294 -6.225196598742245e-14 0
2.999999998909304 7.843033485221755e-10 0
3.000000000036689 -1.343020679365872e-11 0
3.000000023931331 1.043327760199373e-07 0
2.999999991600421 -7.057715172186894e-09 0
2.99999999000584 6.068395464401607e-08 0
3.000001107762678 2.351933015379848e-08 0
3.000000026398353 2.478625106182248e-08 0
2.999999713650433 -7.330458221360589e-10 0
3.000001137685058 -3.47524291788646e-08 0
2.999999998823616 3.080725070402955e-10 0
2.999999999996217 5.366612640557884e-13 0
3.000000000000024 -2.99124701360583e-15 0
3.000000000000016 5.037852787817591e-15 0
2.999998876264549 6.187889920783476e-07 0
2.999999596996858 4.631055638498807e-07 0
2.999999999997323 -1.468613063544663e-13 0
3.000000000574568 8.763297366429259e-12 0
3.000000030384401 -3.440076067140377e-09 0
3.000015369200528 -4.783019413894293e-06 0
3.000000579433281 -3.679342434270403e-07 0
2.999999542504307 -4.771840618257556e-08 0
3.000002548667226 1.262086642485505e-07 0
3.000000003557321 1.718547306435131e-08 0
3.000000008248496 3.153435046973167e-08 0
3.000000003036558 -7.29921107212453e-09 0
2.999999983910087 4.974085393077268e-08 0
3.000000004718633 -1.20194869268861e-08 0
2.999999998099508 8.674481472128034e-09 0
3.000000000694305 -2.040805608518856e-09 0
3.000000008701632 -9.906606990891187e-09 0
2.999999997626541 2.663943888628054e-09 0
3.000000000400027 -1.201576511427267e-09 0
3.000000000381497 -2.187396144524597e-10 0
2.999999997128639 2.419166644150925e-09 0
1.573353454329767 0.02403770905087935 0
2.999577277597866 6.774295662186267e-05 0
3.000000000431213 -3.797831680182752e-10 0
2.999993154506224 7.622304276933787e-07 0
3.000189586370173 -3.540095932688278e-06 0
3.000000519236592 -1.988280679145067e-07 0
3.001739322140394 -0.0005608477766669733 0
3.000000001317364 -7.726196865686368e-10 0
3.000000920888706 -3.881175192070921e-09 0
2.999999644187972 2.188120238149959e-09 0
3.000000837487697 3.184634968728712e-08 0
2.999987083241244 2.951684624649481e-07 0
2.953585241562966 0.02067230663237943 0
2.999999999190471 -5.645608803533328e-09 0
3.000005772590901 -6.386448905528348e-08 0
3.000000002953168 -4.753234876161975e-10 0
2.99999996636793 5.765129404273326e-09 0
3.000018539527965 -2.359114906884129e-06 0
2.999994319071562 6.704677508444941e-07 0
2.999999999998191 4.163436987348703e-13 0
2.999999999934304 -5.287343476875557e-11 0
3.000000000000569 -1.909873793680588e-13 0
2.999999999999994 2.742380302385285e-16 0
3.000000000000026 -4.935894746982217e-15 0
3.000000000004276 -1.02950143707487e-12 0
2.999999999997404 -4.677317478695006e-14 0
3.000000000000011 1.948257123711881e-15 0
3.000000000965237 -4.254187453160549e-11 0
2.999999999989345 2.56288821795213e-13 0
2.999999999999936 5.222086341200772e-16 0
3.00000144817011 -8.217528470405232e-08 0
3.000000006290352 -1.640042917168905e-10 0
2.999999999968504 -2.459064089398906e-11 0
3.000000000000114 2.958871101960565e-14 0
3.000000000000011 -3.354278259591983e-15 0
3.000000004847756 3.793230615283869e-10 0
3.000000000000814 1.938278298954396e-12 0
3.000000000000156 1.299451733556589e-13 0
2.99999999998799 8.323435902988551e-13 0
3 -2.694576947723969e-16 0
3.000000000000002 -8.051525164144778e-16 0
2.999999999999897 3.923081954902527e-15 0
3.000000004571891 -1.359480952293525e-09 0
3.000000000000083 1.698116887781564e-14 0
3.000000000000001 1.419205813569978e-16 0
3.00000000000003 -1.135290690806573e-14 0
2.999999999913394 1.675108445586616e-11 0
3.000000000163928 8.841871923980068e-12 0
3.00000000002357 -1.554100185907191e-12 0
2.999999980319033 6.553639058769889e-09 0
3.00000014361826 -1.28869935938107e-08 0
3.000000000816343 3.231835167778094e-09 0
3.000143379270907 -1.537220206790111e-06 0
2.996429908205378 9.326165162915885e-05 0
2.999999994051484 2.758251501129692e-10 0
3.000000515010214 -1.606927671174228e-07 0
3.000000000501037 -5.56466453465525e-10 0
3.000701965174573 -0.001445660492800601 0
2.999999901232401 1.26440024338449e-08 0
2.999999999668532 2.190040936082078e-10 0
2.999999995706282 1.938024925366434e-09 0
2.999999998732707 1.463356002059316e-09 0
2.999980925962671 -1.120079972175185e-07 0
2.999999576323251 5.005880062768896e-08 0
3.000000035624752 -8.452594432599766e-09 0
2.999999998895218 2.805656651341628e-09 0
2.999999999967919 -3.455999581257621e-11 0
2.99999998561831 3.897054133150847e-10 0
3.000040983443574 -2.804957901434493e-06 0
3.000000000017309 1.341234107912245e-12 0
2.999996117591476 1.458475921259935e-06 0
2.999986587657787 3.505067906247686e-06 0
3.000001533109947 -3.641678095386374e-07 0
3.000001667782356 -2.719425883329701e-07 0
2.999987025359317 -2.017620494891861e-07 0
3.000038197482313 2.627357144433254e-06 0
3.035582004458328 0.0002767020155415099 0
3.023183100554976 -0.0003155941108010744 0
3.000000499489922 -5.161616157130879e-08 0
3.000000000040686 -3.152715895697619e-11 0
3.000000872276631 -1.487268297918048e-05 0
3.000016275492948 5.786804831758391e-05 0
3.000023662132318 -9.612111242088471e-06 0
2.999992692683663 -1.351759656018062e-06 0
2.999999967918511 -4.036676466291896e-07 0
2.858155420747816 0.042474578335461 0
2.99999768808619 1.602634270260467e-06 0
2.999999885187274 2.171947589259232e-08 0
2.999999992330658 8.851512608878875e-09 0
3.000000006797102 6.362764861013182e-09 0
3.000000307527034 -1.157276635395222e-07 0
2.999999999974987 1.282548624546475e-11 0
2.999906450620774 0.0001265430835067642 0
3.000047046428741 1.71549493876549e-05 0
2.999833733050164 -0.0001041596237727379 0
3.000119177279599 2.017940406340431e-06 0
3.000055709302207 1.541196857564129e-07 0
3.000000000003454 6.949495620453613e-13 0
3.000000000132819 -5.263030855824538e-11 0
2.999999750969919 5.872547643131816e-09 0
3.000000056245033 -3.325649580014755e-09 0
3.000000011490289 6.886638074757961e-10 0
2.999999983451864 1.066108214746785e-09 0
2.999999995240806 -2.421653052622452e-11 0
3.000000005530401 -2.721854049810769e-10 0
3.000000000138086 1.015055031186366e-11 0
2.999999998684558 7.01826319765529e-11 0
3.000000000517885 -1.134659755925073e-11 0
3.000000000082697 -1.83207114979724e-11 0
2.99999999982609 7.420355177349378e-12 0
3.000000000045288 2.432502673816493e-12 0
3.000000000021319 -2.793917953286576e-12 0
2.999999999985025 6.520462723866827e-13 0
3.00000000000149 6.739804430527802e-13 0
3.000000000001787 -5.017622353227142e-13 0
2.999999999999269 -1.446240933910459e-13 0
3.000000000000042 1.707114809163401e-13 0
2.999999999999918 6.339540378671832e-14 0
3.000000000000008 -4.745978418416922e-14 0
3.000000000000093 -3.748272968865672e-14 0
2.999999999999962 1.82384403873736e-14 0
2.999999999999978 1.555959392882538e-14 0
3.000000000000016 -9.526833251937664e-15 0
3 -3.421354627455373e-15 0
2.999999999999997 4.232269950673983e-15 0
3.000000000000003 -3.014720338099038e-16 0
3.000000000000002 -1.512364237855512e-15 0
2.999999999999999 9.654417105597499e-16 0
3 5.704529268952539e-16 0
3.000000000000002 -5.766570412305796e-16 0
3.000000000000002 -3.366026654471765e-16 0
2.999999999999999 6.081180612217092e-16 0
3 5.86200480648257e-17 0
3 -6.113608915034116e-16 0
2.999999999999997 9.713798493256389e-16 0
3.000000000000011 -2.711626777585928e-15 0
3.000000000000016 -6.026758160832958e-15 0
2.999999999999943 2.033646830915055e-14 0
2.999999999999969 1.727687136843226e-14 0
3.000000000000161 -7.456280881882598e-14 0
3.000000000000006 -2.716789406347606e-14 0
2.999999999999811 1.614732621114319e-13 0
3.000000000000152 -2.692107933982682e-14 0
2.999999999999615 -6.931333677978384e-14 0
2.999999999999577 2.679718141605683e-13 0
3.000000000002134 -9.025971266314331e-13 0
3.000000000000106 -6.200443931045746e-13 0
2.999999999996922 3.363683438954509e-12 0
3.000000000002029 4.98726561409085e-14 0
2.999999999995188 -4.018779582531606e-12 0
2.999999999996206 3.475493354676593e-12 0
3.000000000023881 -1.015942882680829e-11 0
2.999999999994615 -7.108617167894656e-12 0
2.999999999991085 4.369277532528982e-11 0
3.000000000024869 -5.465836375259695e-12 0
2.999999999892173 -2.590716398188853e-11 0
3.000000000005816 4.074649134129407e-11 0
3.00000000012118 -1.713809262477441e-10 0
2.999999999888494 -1.875494702509988e-11 0
3.000000000406752 2.878841706114072e-10 0
3.000000000011055 -1.368126770900176e-10 0
2.999999999454606 4.218975933575844e-10 0
3.00000000036544 1.152622095186845e-10 0
2.999999998642125 -1.117723304446097e-09 0
3.000000000129976 4.575806620248681e-10 0
3.000000000840831 -1.486902811408885e-09 0
2.99999999901959 -3.238208250203338e-10 0
3.000000004475358 3.508434471807612e-09 0
2.999999998877152 -1.592053006556703e-09 0
3.000000002484671 6.734507592958828e-09 0
3.000000000675781 -4.930193281519388e-10 0
2.999993084641441 1.383474505315947e-06 0
3.000119807615508 -2.242456619627036e-06 0
3.00000000775866 -7.450430586217838e-09 0
2.999999992752225 3.623481288295285e-09 0
2.999972016713918 4.35169980834795e-06 0
3.00007429111179 -1.113952104709841e-05 0
3.000055760625964 8.925385440383933e-07 0
2.999999996033091 -6.678262801446223e-10 0
3.000000002330599 2.641014289917861e-09 0
2.999999994909579 -2.526152420451282e-08 0
2.999999504720693 9.421950811239371e-08 0
2.999889489777745 -1.214342727396816e-06 0
3.000124619372297 -3.034843731148262e-06 0
2.99927229749993 -3.969045285598629e-05 0
3.000072575322072 -3.549307230601369e-07 0
3.000039418889977 2.171652036537545e-06 0
3.000111746625307 9.816406175560597e-07 0
2.999982052318019 -6.995187527341078e-07 0
3.00004520828588 -4.458458376786685e-06 0
2.999986852598575 2.405515039065058e-07 0
2.999999092816702 -8.553639604550632e-08 0
2.999996310404103 4.47993650207837e-08 0
3.000168026620392 -2.491885460913141e-07 0
3.000002160349918 1.79052380137949e-07 0
3.00000121001847 -2.290130931392403e-08 0
3.000000531506057 -3.091916539656003e-07 0
2.999999550545127 6.626446486118223e-07 0
3.000000009866598 -5.006246580646951e-09 0
3.000000000364522 2.955566750462765e-10 0
3.000000277343625 1.245862990465897e-09 0
3.000000000000134 9.447824742485225e-16 0
2.824997231971481 -0.002920149372428386 0
2.999999737675368 -5.457845862829012e-08 0
2.999999734325085 9.716743933159931e-10 0
2.999999980796049 9.645122694083879e-09 0
3.000000062390858 2.242919685682839e-09 0
3.000000023592904 -1.570137127373689e-09 0
2.999999981971011 -7.793486469659069e-10 0