<?xml version="1.0"?>
<VTKFile type="UnstructuredGrid">
  <UnstructuredGrid>
  <Piece NumberOfPoints="1224"  NumberOfCells="2290">
    <Points>
      <DataArray type="Float64" NumberOfComponents="3" format="ascii">
0 0 0
0.6 0 0
0.6 0.2 0
84 0.2 0
84 1 0
0 1 0
0.05454545454535233 0 0
0.1090909090906768 0 0
0.1636363636359771 0 0
0.2181818181812728 0 0
0.2727272727265793 0 0
0.3272727272720317 0 0
0.3818181818176247 0 0
0.4363636363632168 0 0
0.4909090909088285 0 0
0.5454545454544089 0 0
0.6 0.03999999999991203 0
0.6 0.07999999999979179 0
0.6 0.1199999999997886 0
0.6 0.1599999999998948 0
7.986959469336573 0.2 0
10.31116023188936 0.2 0
12.276234249149 0.2 0
14.12343306387795 0.2 0
15.89888488165164 0.2 0
17.62945590330983 0.2 0
19.32799793604781 0.2 0
21.00447143738728 0.2 0
22.66508244581633 0.2 0
24.31398656852904 0.2 0
25.95411135382712 0.2 0
27.58755711274418 0.2 0
29.21586821966248 0.2 0
30.84021739041395 0.2 0
32.46146104569992 0.2 0
34.08025332342734 0.2 0
35.69710778607972 0.2 0
37.31242297845326 0.2 0
38.92651068518617 0.2 0
40.53961608081979 0.2 0
42.15193346553293 0.2 0
43.76361706949449 0.2 0
45.37479000509781 0.2 0
46.98555068821946 0.2 0
48.59597813591943 0.2 0
50.20613583389816 0.2 0
51.81607496043145 0.2 0
53.42583678507143 0.2 0
55.03545467517106 0.2 0
56.64495562834745 0.2 0
58.25436153311762 0.2 0
59.86369014864191 0.2 0
61.47295589892715 0.2 0
63.08217050783694 0.2 0
64.69134348769886 0.2 0
66.30048259208134 0.2 0
67.9095943310373 0.2 0
69.51868388158682 0.2 0
71.12775532825485 0.2 0
72.73681232745554 0.2 0
74.34585772626828 0.2 0
75.95489389201674 0.2 0
77.56392285675457 0.2 0
79.17294658319044 0.2 0
80.78196644893538 0.2 0
82.39098385353705 0.2 0
84 0.2533333333332341 0
84 0.3066666666664725 0
84 0.3599999999996274 0
84 0.413333333332804 0
84 0.4666666666659806 0
84 0.5199999999991571 0
84 0.5733333333323336 0
84 0.6266666666656895 0
84 0.6799999999991551 0
84 0.7333333333326146 0
84 0.7866666666660802 0
84 0.8399999999995775 0
84 0.8933333333330373 0
84 0.9466666666664969 0
82.39786142381041 1 0
80.79572409108765 1 0
79.19358926334557 1 0
77.5914583545115 1 0
75.98933286569157 1 0
74.38721451771296 1 0
72.78510548768003 1 0
71.18300792561797 1 0
69.58092523313064 1 0
67.9788605197824 1 0
66.37681816594555 1 0
64.77480370684756 1 0
63.17282303722385 1 0
61.57088458089613 1 0
59.96899719452924 1 0
58.36717357835968 1 0
56.76542699515537 1 0
55.1637771717693 1 0
53.56224293099203 1 0
51.96085461712119 1 0
50.3596415497425 1 0
48.75864823281736 1 0
47.1579240467219 1 0
45.55752969275971 1 0
43.95754205950281 1 0
42.35805598048635 1 0
40.75918718702685 1 0
39.16108034316611 1 0
37.56391738712905 1 0
35.96790767859913 1 0
34.37331659278995 1 0
32.78050251433667 1 0
31.18983208481325 1 0
29.60184694969919 1 0
28.01715283024733 1 0
26.43650545412549 1 0
24.86083374171682 1 0
23.29125025049126 1 0
21.72913070736102 1 0
20.17608310043802 1 0
18.63402914757987 1 0
17.10524323356422 1 0
15.59197778836801 1 0
14.09648195814243 1 0
12.62096650673626 1 0
11.16861376464403 1 0
9.743761329242792 1 0
8.355513615016536 1 0
7.01974209235895 1 0
5.761422422421663 1 0
4.597006128652067 1 0
3.550012786527991 1 0
2.630687476256099 1 0
1.89477228859303 1 0
1.304664376800223 1 0
0.8512696129265066 1 0
0.508192953934679 1 0
0.2326544603297193 1 0
0 0.9473684210524125 0
0 0.8947368421048248 0
0 0.8421052631576025 0
0 0.7894736842105994 0
0 0.7368421052635962 0
0 0.6842105263165927 0
0 0.6315789473695894 0
0 0.5789473684225861 0
0 0.5263157894755828 0
0 0.4736842105282874 0
0 0.4210526315806998 0
0 0.3684210526331123 0
0 0.3157894736855248 0
0 0.2631578947379374 0
0 0.21052631579035 0
0 0.1578947368427625 0
0 0.1052631578951749 0
0 0.05263157894758741 0
5.277352608136137 0.955462795473483 0
6.339112224994802 0.2394317949808221 0
14.86713171637319 0.9557759867023439 0
70.469103589401 0.9559758769411787 0
63.97379520063297 0.9559648099769389 0
57.56625928883294 0.9559648099769389 0
51.16015578417133 0.9559648099772646 0
44.83975006459254 0.9560078743553572 0
38.44269268513828 0.9561420672712786 0
31.98411137100306 0.95627738856474 0
25.64638941092386 0.9563034567995272 0
0.1110047605038685 0.5498854761242812 0
20.1712852128946 0.2442383967812095 0
67.1542405005159 0.2421522008426663 0
60.6682807098396 0.243586373321511 0
54.23070897029626 0.24363095694403 0
47.79097896669459 0.2436741865527954 0
41.34617960048588 0.2437170671454607 0
34.88941042805714 0.2437587738062726 0
28.40306077595693 0.2442249255777628 0
3.196919039132633 0.2417757800606361 0
6.075496299633341 0.2785115072887754 0
82.47251701812461 0.5995349944823752 0
3.781873991627771 0.2791940688436214 0
5.852131425591477 0.3180386921514113 0
3.972643783311891 0.3181181454258206 0
5.609607349804446 0.3577335228902347 0
73.64917514745859 0.2416532643303031 0
3.978031028707832 0.3576683284772433 0
5.349480095516054 0.3976917483469583 0
6.936344538860357 0.3977458985417416 0
6.544187326958047 0.4382323507424581 0
8.085224993504118 0.4382172989803606 0
7.622844239603511 0.4790536480492864 0
9.118508483960516 0.4792447281197085 0
6.224174823551873 0.4817209888486334 0
2.218958231683409 0.9660670791366374 0
19.40352339700486 0.9559852449915113 0
8.605133732875146 0.5203953730037822 0
10.07649249865361 0.5205851219036783 0
75.30724640577822 0.9563165682871465 0
0.04898843494064896 0.2894490564426765 0
9.513745808674168 0.5622881188475496 0
10.97703996099101 0.5621981517123112 0
0.1444298329678669 0.7091098825652095 0
0.2670583721244384 0.04723774929726795 0
11.56604243592403 0.5200372393771872 0
12.45334943108656 0.562505099575485 0
10.38860192440932 0.6041261864689124 0
8.952336049395516 0.6041581669226386 0
82.56105142105811 0.4393531299125908 0
13.08934076601604 0.5199435586712576 0
13.96223962167485 0.5624873891767795 0
2.497115286594074 0.3174350849704655 0
2.657787981965952 0.3576870257641042 0
14.62553742152767 0.5195844107098163 0
15.4935945498668 0.5621174250913318 0
9.796280622192363 0.6460588488486728 0
8.395362805305613 0.6462390077748084 0
14.78714991847437 0.6067218912904607 0
16.34257327576472 0.6047738158182728 0
17.03991715621702 0.5617915498272615 0
17.88481810352588 0.6045430073239006 0
18.6012815379477 0.5614360364847856 0
19.43988865562541 0.6046345614192383 0
20.16755690642993 0.5613114208485291 0
21.00484193709242 0.604758732930365 0
21.72684561840824 0.5597386087889248 0
22.58012206053582 0.6042836632406788 0
23.34030037608273 0.5607219500906248 0
24.16706592655936 0.6043040651294929 0
24.93194313364411 0.5598592244124957 0
25.75575480187827 0.6040638744783449 0
26.52692671808087 0.5595216793632644 0
27.34786975689682 0.6038781229769293 0
28.12399576816273 0.5600604284234054 0
28.94247666689568 0.6038664424080111 0
29.70771692750802 0.55874807111347 0
30.53767877735904 0.6035341865995129 0
31.31370696493635 0.5586520846649797 0
32.13775279202681 0.6034054551655909 0
32.92412442947704 0.558835304845746 0
33.7393233262513 0.6032503772964327 0
34.52845247183423 0.5587079795953892 0
35.34145201097131 0.6030926920218221 0
36.13206760470771 0.5580480170404921 0
36.94409113437548 0.6028436706904448 0
37.73606248839082 0.5577680566445021 0
38.54729179967696 0.6026435181305781 0
39.34039901434334 0.5575726351194972 0
40.15102193426597 0.6024617369905624 0
40.94504507907316 0.5573842056888257 0
41.75528791027957 0.6022873884346892 0
42.54994426506832 0.5572075399874397 0
43.35978986291658 0.6021111834258887 0
44.15502559473784 0.5570246051384745 0
44.9644954892695 0.6019307913070558 0
45.76023808715241 0.5568475628142857 0
46.56943553748858 0.6017522495250318 0
47.36557038710554 0.5566653603575672 0
48.17461472527905 0.601574020443024 0
48.97100427804463 0.5564884669211013 0
49.77986987526358 0.601395113412113 0
50.57650445092194 0.5563067813822595 0
51.38506631981411 0.6012129143420911 0
52.18203448093352 0.5561292537946573 0
52.99047138722521 0.601032757987411 0
53.78762814143795 0.5559477304122714 0
54.59612985728553 0.600855564813206 0
55.39328999585778 0.5557710179709322 0
56.20171562607342 0.6006760179252703 0
56.99896403147993 0.5555900146741853 0
57.80725827694615 0.6004921726308964 0
58.60464293865267 0.5554125217101814 0
59.41287936799774 0.6003111949874665 0
60.21034400574195 0.5552312296013228 0
61.01843676547152 0.6001298880828497 0
61.81605312123365 0.5550546947866846 0
62.62413282202277 0.599950595338254 0
63.42185807789048 0.5548708301001631 0
64.23005524846111 0.5997713467128002 0
65.02797470378556 0.5547000681173012 0
65.83635662098958 0.5996004731097838 0
66.63462408726797 0.5545095609010697 0
67.44306035379154 0.5994220729206983 0
68.24219480981048 0.5543494429014709 0
69.05028929954685 0.5993228147833797 0
69.85141482214627 0.5541346321759457 0
70.66164664101338 0.5992395038842441 0
71.46498376293988 0.5540180644105763 0
82.70638399621825 0.7598964409357507 0
72.27898684196164 0.5990918128353608 0
1.587187465776048 0.3159793431387367 0
1.766335955009022 0.357715436029677 0
1.033162593142896 0.3157219358498637 0
1.16935395220239 0.3576135465858128 0
66.63988149019175 0.643990885448769 0
60.22080064559885 0.6444881680698032 0
21.82573268231048 0.6487487015028032 0
53.79889509138855 0.6452136474256573 0
47.3782585322158 0.6459229900926835 0
0.6853811813332757 0.3150377509381005 0
0.7818292561539265 0.3574251905568473 0
1.244110481990362 0.4002519798591844 0
40.96089597737986 0.6466170330762969 0
28.16676679193048 0.6479317947648683 0
34.55306663516208 0.6473399689389928 0
17.18300568521018 0.6483605753517908 0
9.213740165204889 0.6883083412871458 0
7.84361067354027 0.6885103796531055 0
73.08333689311175 0.5527758280498023 0
24.07636820491193 0.5148848291986879 0
71.47280831368663 0.6438096025956825 0
73.09314938823432 0.6437140715169269 0
32.09284394230489 0.5138574114565649 0
38.51728642565321 0.5115839513085039 0
44.94121553849631 0.5109012431757174 0
51.3656254046293 0.510388685431229 0
0.8355230037227918 0.4001745965167012 0
1.264692685922097 0.4433206937839571 0
57.7902349645179 0.5096846626216972 0
[...]
    <PointData>
      <DataArray type="Float64" NumberOfComponents="3" Name="Velocity" format="ascii">
-nan -nan 0
-nan -nan 0
-nan -nan 0
-nan -nan 0
-nan -nan 0
-nan -nan 0
-nan -nan 0
-nan -nan 0
-nan -nan 0
-nan -nan 0
-nan -nan 0
-nan -nan 0
-nan -nan 0
-nan -nan 0
-nan -nan 0
-nan -nan 0
-nan -nan 0
-nan -nan 0
-nan -nan 0
-nan -nan 0
-nan -nan 0
-nan -nan 0
-nan -nan 0
-nan -nan 0
-nan -nan 0
-nan -nan 0
-nan -nan 0
-nan -nan 0
-nan -nan 0
-nan -nan 0
-nan -nan 0
-nan -nan 0
-nan -nan 0
-nan -nan 0
-nan -nan 0
-nan -nan 0
-nan -nan 0
-nan -nan 0
-nan -nan 0
-nan -nan 0
-nan -nan 0
-nan -nan 0
-nan -nan 0
-nan -nan 0
-nan -nan 0
-nan -nan 0
-nan -nan 0
-nan -nan 0
-nan -nan 0
-nan -nan 0
-nan -nan 0
-nan -nan 0
-nan -nan 0
-nan -nan 0
-nan -nan 0
-nan -nan 0
-nan -nan 0
-nan -nan 0
-nan -nan 0
-nan -nan 0
-nan -nan 0
-nan -nan 0
-nan -nan 0
-nan -nan 0
-nan -nan 0
-nan -nan 0
-nan -nan 0
-nan -nan 0
-nan -nan 0
-nan -nan 0
-nan -nan 0
-nan -nan 0
-nan -nan 0
-nan -nan 0
-nan -nan 0
-nan -nan 0
-nan -nan 0
-nan -nan 0
-nan -nan 0
-nan -nan 0
-nan -nan 0
-nan -nan 0
-nan -nan 0
-nan -nan 0
-nan -nan 0
-nan -nan 0
-nan -nan 0
-nan -nan 0
-nan -nan 0
-nan -nan 0
-nan -nan 0
-nan -nan 0
-nan -nan 0
-nan -nan 0
-nan -nan 0
-nan -nan 0
-nan -nan 0
-nan -nan 0
-nan -nan 0
-nan -nan 0
-nan -nan 0
-nan -nan 0
-nan -nan 0
-nan -nan 0
-nan -nan 0
-nan -nan 0
-nan -nan 0
-nan -nan 0
-nan -nan 0
-nan -nan 0
-nan -nan 0
-nan -nan 0
-nan -nan 0
-nan -nan 0
-nan -nan 0
-nan -nan 0
-nan -nan 0
-nan -nan 0
-nan -nan 0
-nan -nan 0
-nan -nan 0
-nan -nan 0
-nan -nan 0
-nan -nan 0
-nan -nan 0
-nan -nan 0
-nan -nan 0
-nan -nan 0
-nan -nan 0
-nan -nan 0
-nan -nan 0
-nan -nan 0
-nan -nan 0
-nan -nan 0
-nan -nan 0
-nan -nan 0
-nan -nan 0
-nan -nan 0
-nan -nan 0
-nan -nan 0
-nan -nan 0
-nan -nan 0
-nan -nan 0
-nan -nan 0
-nan -nan 0
-nan -nan 0
-nan -nan 0
-nan -nan 0
-nan -nan 0
-nan -nan 0
-nan -nan 0
-nan -nan 0
-nan -nan 0
-nan -nan 0
-nan -nan 0
-nan -nan 0
-nan -nan 0
-nan -nan 0
-nan -nan 0
-nan -nan 0
-nan -nan 0
-nan -nan 0
-nan -nan 0
-nan -nan 0
-nan -nan 0
-nan -nan 0
-nan -nan 0
-nan -nan 0
-nan -nan 0
-nan -nan 0
-nan -nan 0
-nan -nan 0
-nan -nan 0
-nan -nan 0
-nan -nan 0
-nan -nan 0
-nan -nan 0
-nan -nan 0
-nan -nan 0
-nan -nan 0
-nan -nan 0
-nan -nan 0
-nan -nan 0
-nan -nan 0
-nan -nan 0
-nan -nan 0
-nan -nan 0
-nan -nan 0
-nan -nan 0
-nan -nan 0
-nan -nan 0
-nan -nan 0
-nan -nan 0
-nan -nan 0
-nan -nan 0
-nan -nan 0
-nan -nan 0
-nan -nan 0
-nan -nan 0
-nan -nan 0
-nan -nan 0
-nan -nan 0
-nan -nan 0
-nan -nan 0
-nan -nan 0
-nan -nan 0
-nan -nan 0
-nan -nan 0
-nan -nan 0
-nan -nan 0
-nan -nan 0
-nan -nan 0
-nan -nan 0
-nan -nan 0
-nan -nan 0
-nan -nan 0
-nan -nan 0
-nan -nan 0
-nan -nan 0
-nan -nan 0
-nan -nan 0
-nan -nan 0
-nan -nan 0
-nan -nan 0
-nan -nan 0
-nan -nan 0
-nan -nan 0
-nan -nan 0
-nan -nan 0
-nan -nan 0
-nan -nan 0
-nan -nan 0
-nan -nan 0
-nan -nan 0
-nan -nan 0
-nan -nan 0
-nan -nan 0
-nan -nan 0
-nan -nan 0
-nan -nan 0
-nan -nan 0
-nan -nan 0
-nan -nan 0
-nan -nan 0
-nan -nan 0
-nan -nan 0
-nan -nan 0
-nan -nan 0
-nan -nan 0
-nan -nan 0
-nan -nan 0
-nan -nan 0
-nan -nan 0
-nan -nan 0
-nan -nan 0
-nan -nan 0
-nan -nan 0
-nan -nan 0
-nan -nan 0
-nan -nan 0
-nan -nan 0
-nan -nan 0
-nan -nan 0
-nan -nan 0
-nan -nan 0
-nan -nan 0
-nan -nan 0
-nan -nan 0
-nan -nan 0
-nan -nan 0
-nan -nan 0
-nan -nan 0
-nan -nan 0
-nan -nan 0
-nan -nan 0
-nan -nan 0
-nan -nan 0
-nan -nan 0
-nan -nan 0
-nan -nan 0
-nan -nan 0
-nan -nan 0
-nan -nan 0
-nan -nan 0
-nan -nan 0
-nan -nan 0
-nan -nan 0
-nan -nan 0
-nan -nan 0
-nan -nan 0
-nan -nan 0
-nan -nan 0
-nan -nan 0
-nan -nan 0
-nan -nan 0
-nan -nan 0
-nan -nan 0
-nan -nan 0
-nan -nan 0
-nan -nan 0
-nan -nan 0
-nan -nan 0
-nan -nan 0
-nan -nan 0
-nan -nan 0
-nan -nan 0
-nan -nan 0
-nan -nan 0
-nan -nan 0
-nan -nan 0
-nan -nan 0
-nan -nan 0
-nan -nan 0
-nan -nan 0
-nan -nan 0
-nan -nan 0
-nan -nan 0
-nan -nan 0
-nan -nan 0
-nan -nan 0
-nan -nan 0
-nan -nan 0
-nan -nan 0
-nan -nan 0
-nan -nan 0
-nan -nan 0
-nan -nan 0
-nan -nan 0
-nan -nan 0
-nan -nan 0
-nan -nan 0
-nan -nan 0
-nan -nan 0
-nan -nan 0
-nan -nan 0
-nan -nan 0
-nan -nan 0
-nan -nan 0
-nan -nan 0
-nan -nan 0
-nan -nan 0
-nan -nan 0
-nan -nan 0
-nan -nan 0
-nan -nan 0
-nan -nan 0
-nan -nan 0
-nan -nan 0
-nan -nan 0
-nan -nan 0
-nan -nan 0
-nan -nan 0
-nan -nan 0
-nan -nan 0
-nan -nan 0
-nan -nan 0
-nan -nan 0
-nan -nan 0
-nan -nan 0
-nan -nan 0
-nan -nan 0
-nan -nan 0
-nan -nan 0
-nan -nan 0
-nan -nan 0
-nan -nan 0
-nan -nan 0
-nan -nan 0
-nan -nan 0
-nan -nan 0
-nan -nan 0
-nan -nan 0
-nan -nan 0
-nan -nan 0
-nan -nan 0
-nan -nan 0
-nan -nan 0
-nan -nan 0
-nan -nan 0
-nan -nan 0
-nan -nan 0
-nan -nan 0
-nan -nan 0
-nan -nan 0
-nan -nan 0
-nan -nan 0
-nan -nan 0
-nan -nan 0
-nan -nan 0
-nan -nan 0
-nan -nan 0
-nan -nan 0
-nan -nan 0
-nan -nan 0
-nan -nan 0
-nan -nan 0
-nan -nan 0
-nan -nan 0
-nan -nan 0
-nan -nan 0
-nan -nan 0
-nan -nan 0
-nan -nan 0
-nan -nan 0
-nan -nan 0
-nan -nan 0
-nan -nan 0
-nan -nan 0
-nan -nan 0
-nan -nan 0
-nan -nan 0
-nan -nan 0
-nan -nan 0
-nan -nan 0
-nan -nan 0
-nan -nan 0
-nan -nan 0
-nan -nan 0
-nan -nan 0
-nan -nan 0
-nan -nan 0
-nan -nan 0
-nan -nan 0
-nan -nan 0
-nan -nan 0
-nan -nan 0
-nan -nan 0
-nan -nan 0
-nan -nan 0
-nan -nan 0
-nan -nan 0
-nan -nan 0
-nan -nan 0
-nan -nan 0
-nan -nan 0
-nan -nan 0
-nan -nan 0
-nan -nan 0
-nan -nan 0
-nan -nan 0
-nan -nan 0
-nan -nan 0
-nan -nan 0
-nan -nan 0
-nan -nan 0
-nan -nan 0
-nan -nan 0
-nan -nan 0
-nan -nan 0
-nan -nan 0
-nan -nan 0
-nan -nan 0
-nan -nan 0
-nan -nan 0
-nan -nan 0
-nan -nan 0
-nan -nan 0
-nan -nan 0
-nan -nan 0
-nan -nan 0
-nan -nan 0
-nan -nan 0
-nan -nan 0
-nan -nan 0
-nan -nan 0
-nan -nan 0
-nan -nan 0
-nan -nan 0
-nan -nan 0
-nan -nan 0
-nan -nan 0
-nan -nan 0
-nan -nan 0
-nan -nan 0
-nan -nan 0
-nan -nan 0
-nan -nan 0
-nan -nan 0
-nan -nan 0
-nan -nan 0
-nan -nan 0
-nan -nan 0
-nan -nan 0
-nan -nan 0
-nan -nan 0
-nan -nan 0
-nan -nan 0
-nan -nan 0
-nan -nan 0
-nan -nan 0
-nan -nan 0
-nan -nan 0
-nan -nan 0
-nan -nan 0
-nan -nan 0
-nan -nan 0
-nan -nan 0
-nan -nan 0
-nan -nan 0
-nan -nan 0
-nan -nan 0
-nan -nan 0
-nan -nan 0
-nan -nan 0
-nan -nan 0
-nan -nan 0
-nan -nan 0
-nan -nan 0
-nan -nan 0
-nan -nan 0
-nan -nan 0
-nan -nan 0
-nan -nan 0
-nan -nan 0
-nan -nan 0
-nan -nan 0
-nan -nan 0
-nan -nan 0
-nan -nan 0
-nan -nan 0
-nan -nan 0
-nan -nan 0
-nan -nan 0
-nan -nan 0
-nan -nan 0
-nan -nan 0
-nan -nan 0
-nan -nan 0
-nan -nan 0
-nan -nan 0
-nan -nan 0
-nan -nan 0
-nan -nan 0
-nan -nan 0
-nan -nan 0
-nan -nan 0
-nan -nan 0
-nan -nan 0
-nan -nan 0
-nan -nan 0
-nan -nan 0
-nan -nan 0
-nan -nan 0
-nan -nan 0
-nan -nan 0
-nan -nan 0
-nan -nan 0
-nan -nan 0
-nan -nan 0
-nan -nan 0
-nan -nan 0
-nan -nan 0
-nan -nan 0
-nan -nan 0
-nan -nan 0
-nan -nan 0
-nan -nan 0
-nan -nan 0
-nan -nan 0
-nan -nan 0
-nan -nan 0
-nan -nan 0
-nan -nan 0
-nan -nan 0
-nan -nan 0
-nan -nan 0
-nan -nan 0
-nan -nan 0
-nan -nan 0
-nan -nan 0
-nan -nan 0
-nan -nan 0
-nan -nan 0
-nan -nan 0
-nan -nan 0
-nan -nan 0
-nan -nan 0
-nan -nan 0
-nan -nan 0
-nan -nan 0
-nan -nan 0
-nan -nan 0
-nan -nan 0
-nan -nan 0
-nan -nan 0
-nan -nan 0
-nan -nan 0
-nan -nan 0
-nan -nan 0
-nan -nan 0
-nan -nan 0
-nan -nan 0
-nan -nan 0
-nan -nan 0
-nan -nan 0
-nan -nan 0
-nan -nan 0
-nan -nan 0
-nan -nan 0
-nan -nan 0
-nan -nan 0
-nan -nan 0
-nan -nan 0
-nan -nan 0
-nan -nan 0
-nan -nan 0
-nan -nan 0
-nan -nan 0
-nan -nan 0
-nan -nan 0
-nan -nan 0
-nan -nan 0
-nan -nan 0
-nan -nan 0
-nan -nan 0
-nan -nan 0
-nan -nan 0
-nan -nan 0
-nan -nan 0
-nan -nan 0
-nan -nan 0
-nan -nan 0
-nan -nan 0
-nan -nan 0
-nan -nan 0
-nan -nan 0
-nan -nan 0
-nan -nan 0
-nan -nan 0
-nan -nan 0
-nan -nan 0
-nan -nan 0
-nan -nan 0
-nan -nan 0
-nan -nan 0
-nan -nan 0
-nan -nan 0
-nan -nan 0
-nan -nan 0
-nan -nan 0
-nan -nan 0
-nan -nan 0
-nan -nan 0
-nan -nan 0
-nan -nan 0
-nan -nan 0
-nan -nan 0
-nan -nan 0
-nan -nan 0
-nan -nan 0
-nan -nan 0
-nan -nan 0
-nan -nan 0
-nan -nan 0
-nan -nan 0
-nan -nan 0
-nan -nan 0
-nan -nan 0
-nan -nan 0
-nan -nan 0
-nan -nan 0
-nan -nan 0
-nan -nan 0
-nan -nan 0
-nan -nan 0
-nan -nan 0
-nan -nan 0
-nan -nan 0
-nan -nan 0
-nan -nan 0
-nan -nan 0
-nan -nan 0
-nan -nan 0
-nan -nan 0
-nan -nan 0
-nan -nan 0
-nan -nan 0
-nan -nan 0
-nan -nan 0
-nan -nan 0
-nan -nan 0
-nan -nan 0
-nan -nan 0
-nan -nan 0
-nan -nan 0
-nan -nan 0
-nan -nan 0
-nan -nan 0
-nan -nan 0
-nan -nan 0
-nan -nan 0
-nan -nan 0
-nan -nan 0
-nan -nan 0
-nan -nan 0
-nan -nan 0
-nan -nan 0
-nan -nan 0
-nan -nan 0
-nan -nan 0
-nan -nan 0
-nan -nan 0
-nan -nan 0
-nan -nan 0
-nan -nan 0
-nan -nan 0
-nan -nan 0
-nan -nan 0
-nan -nan 0
-nan -nan 0
-nan -nan 0
-nan -nan 0
-nan -nan 0
-nan -nan 0
-nan -nan 0
-nan -nan 0
-nan -nan 0
-nan -nan 0
-nan -nan 0
-nan -nan 0
-nan -nan 0
-nan -nan 0
-nan -nan 0
-nan -nan 0
-nan -nan 0
-nan -nan 0
-nan -nan 0
-nan -nan 0
-nan -nan 0
-nan -nan 0
-nan -nan 0
-nan -nan 0
-nan -nan 0
-nan -nan 0
-nan -nan 0
-nan -nan 0
-nan -nan 0
-nan -nan 0
-nan -nan 0
-nan -nan 0
-nan -nan 0
-nan -nan 0
-nan -nan 0
-nan -nan 0
-nan -nan 0
-nan -nan 0
-nan -nan 0
-nan -nan 0
-nan -nan 0
-nan -nan 0
-nan -nan 0
-nan -nan 0
-nan -nan 0
-nan -nan 0
-nan -nan 0
-nan -nan 0
-nan -nan 0
-nan -nan 0
-nan -nan 0
-nan -nan 0
-nan -nan 0
-nan -nan 0
-nan -nan 0
-nan -nan 0
-nan -nan 0
-nan -nan 0
-nan -nan 0
-nan -nan 0
-nan -nan 0
-nan -nan 0
-nan -nan 0
-nan -nan 0
-nan -nan 0
-nan -nan 0
-nan -nan 0
-nan -nan 0
-nan -nan 0
-nan -nan 0
-nan -nan 0
-nan -nan 0
-nan -nan 0
-nan -nan 0
-nan -nan 0
-nan -nan 0
-nan -nan 0
-nan -nan 0
-nan -nan 0
-nan -nan 0
-nan -nan 0
-nan -nan 0
-nan -nan 0
-nan -nan 0
-nan -nan 0
-nan -nan 0
-nan -nan 0
-nan -nan 0
-nan -nan 0
-nan -nan 0
-nan -nan 0
-nan -nan 0
-nan -nan 0
-nan -nan 0
-nan -nan 0
-nan -nan 0
-nan -nan 0
-nan -nan 0
-nan -nan 0
-nan -nan 0
-nan -nan 0
-nan -nan 0
-nan -nan 0
-nan -nan 0
-nan -nan 0
-nan -nan 0
-nan -nan 0
-nan -nan 0
-nan -nan 0
-nan -nan 0
-nan -nan 0
-nan -nan 0
-nan -nan 0
-nan -nan 0
-nan -nan 0
-nan -nan 0
-nan -nan 0
-nan -nan 0
-nan -nan 0
-nan -nan 0
-nan -nan 0
-nan -nan 0
-nan -nan 0
-nan -nan 0
-nan -nan 0
-nan -nan 0
-nan -nan 0
-nan -nan 0
-nan -nan 0
-nan -nan 0
-nan -nan 0
-nan -nan 0
-nan -nan 0
-nan -nan 0
-nan -nan 0
-nan -nan 0
-nan -nan 0
-nan -nan 0
-nan -nan 0
-nan -nan 0
-nan -nan 0
-nan -nan 0
-nan -nan 0
-nan -nan 0
-nan -nan 0
-nan -nan 0
-nan -nan 0
-nan -nan 0
-nan -nan 0
-nan -nan 0
-nan -nan 0
-nan -nan 0
-nan -nan 0
-nan -nan 0
-nan -nan 0
-nan -nan 0
-nan -nan 0
-nan -nan 0
-nan -nan 0
-nan -nan 0
-nan -nan 0
-nan -nan 0
-nan -nan 0
-nan -nan 0
-nan -nan 0
-nan -nan 0
-nan -nan 0
-nan -nan 0
-nan -nan 0
-nan -nan 0
-nan -nan 0
-nan -nan 0
-nan -nan 0
-nan -nan 0
-nan -nan 0
-nan -nan 0
-nan -nan 0
-nan -nan 0
-nan -nan 0
-nan -nan 0
-nan -nan 0
-nan -nan 0
-nan -nan 0
-nan -nan 0
-nan -nan 0
-nan -nan 0
-nan -nan 0
-nan -nan 0
-nan -nan 0
-nan -nan 0
-nan -nan 0
-nan -nan 0
-nan -nan 0
-nan -nan 0
-nan -nan 0
-nan -nan 0
-nan -nan 0
-nan -nan 0
-nan -nan 0
-nan -nan 0
-nan -nan 0
-nan -nan 0
-nan -nan 0
-nan -nan 0
-nan -nan 0
-nan -nan 0
-nan -nan 0
-nan -nan 0
-nan -nan 0
-nan -nan 0
-nan -nan 0
-nan -nan 0
-nan -nan 0
-nan -nan 0
-nan -nan 0
-nan -nan 0
-nan -nan 0
-nan -nan 0
-nan -nan 0
-nan -nan 0
-nan -nan 0
-nan -nan 0
-nan -nan 0
-nan -nan 0
-nan -nan 0
-nan -nan 0
-nan -nan 0
-nan -nan 0
-nan -nan 0
-nan -nan 0
-nan -nan 0
-nan -nan 0
-nan -nan 0
-nan -nan 0
-nan -nan 0
-nan -nan 0
-nan -nan 0
-nan -nan 0
-nan -nan 0
-nan -nan 0
-nan -nan 0
-nan -nan 0
-nan -nan 0
-nan -nan 0
-nan -nan 0
-nan -nan 0
-nan -nan 0
-nan -nan 0
-nan -nan 0
-nan -nan 0
-nan -nan 0
-nan -nan 0
-nan -nan 0
-nan -nan 0
-nan -nan 0
-nan -nan 0
-nan -nan 0
-nan -nan 0
-nan -nan 0
-nan -nan 0
-nan -nan 0
-nan -nan 0
-nan -nan 0
-nan -nan 0
-nan -nan 0
-nan -nan 0
-nan -nan 0
-nan -nan 0
-nan -nan 0
-nan -nan 0
-nan -nan 0
-nan -nan 0
-nan -nan 0
-nan -nan 0
-nan -nan 0
-nan -nan 0
-nan -nan 0
-nan -nan 0
-nan -nan 0
-nan -nan 0
-nan -nan 0
-nan -nan 0
-nan -nan 0
-nan -nan 0
-nan -nan 0
-nan -nan 0
-nan -nan 0
-nan -nan 0
-nan -nan 0
-nan -nan 0
-nan -nan 0
-nan -nan 0
-nan -nan 0
-nan -nan 0
-nan -nan 0
-nan -nan 0
-nan -nan 0
-nan -nan 0
-nan -nan 0
-nan -nan 0
-nan -nan 0
-nan -nan 0
-nan -nan 0
-nan -nan 0
-nan -nan 0
-nan -nan 0
-nan -nan 0
-nan -nan 0
-nan -nan 0
-nan -nan 0
-nan -nan 0
-nan -nan 0
-nan -nan 0
-nan -nan 0
-nan -nan 0
-nan -nan 0
-nan -nan 0
-nan -nan 0
-nan -nan 0
-nan -nan 0
-nan -nan 0
-nan -nan 0
-nan -nan 0
-nan -nan 0
-nan -nan 0
-nan -nan 0
-nan -nan 0
-nan -nan 0
-nan -nan 0
-nan -nan 0
-nan -nan 0
-nan -nan 0
-nan -nan 0
-nan -nan 0
-nan -nan 0
-nan -nan 0
-nan -nan 0
-nan -nan 0
-nan -nan 0
-nan -nan 0
-nan -nan 0
-nan -nan 0
-nan -nan 0
-nan -nan 0
-nan -nan 0
-nan -nan 0
-nan -nan 0
-nan -nan 0
-nan -nan 0
-nan -nan 0
-nan -nan 0
-nan -nan 0
-nan -nan 0
-nan -nan 0
-nan -nan 0
-nan -nan 0
-nan -nan 0
-nan -nan 0
-nan -nan 0
-nan -nan 0
-nan -nan 0
-nan -nan 0
-nan -nan 0
-nan -nan 0
-nan -nan 0
-nan -nan 0
-nan -nan 0
-nan -nan 0
-nan -nan 0
-nan -nan 0
-nan -nan 0
-nan -nan 0
-nan -nan 0
-nan -nan 0
-nan -nan 0
-nan -nan 0
-nan -nan 0
-nan -nan 0
-nan -nan 0
-nan -nan 0
-nan -nan 0
-nan -nan 0
-nan -nan 0
-nan -nan 0
-nan -nan 0
-nan -nan 0
-nan -nan 0
-nan -nan 0
-nan -nan 0
-nan -nan 0
-nan -nan 0
-nan -nan 0
-nan -nan 0
-nan -nan 0
-nan -nan 0
-nan -nan 0
-nan -nan 0
-nan -nan 0
-nan -nan 0
-nan -nan 0
-nan -nan 0
-nan -nan 0
-nan -nan 0
-nan -nan 0
-nan -nan 0
-nan -nan 0
-nan -nan 0
-nan -nan 0
-nan -nan 0
-nan -nan 0
-nan -nan 0
-nan -nan 0
-nan -nan 0
-nan -nan 0
-nan -nan 0
-nan -nan 0
-nan -nan 0
-nan -nan 0
-nan -nan 0
-nan -nan 0
-nan -nan 0
-nan -nan 0
-nan -nan 0
-nan -nan 0
-nan -nan 0
-nan -nan 0
-nan -nan 0
-nan -nan 0
-nan -nan 0
-nan -nan 0
-nan -nan 0
-nan -nan 0
-nan -nan 0
-nan -nan 0
-nan -nan 0
-nan -nan 0
-nan -nan 0
-nan -nan 0
-nan -nan 0
-nan -nan 0
-nan -nan 0
-nan -nan 0
-nan -nan 0
-nan -nan 0
-nan -nan 0
-nan -nan 0
-nan -nan 0
-nan -nan 0
-nan -nan 0
-nan -nan 0
-nan -nan 0
-nan -nan 0
-nan -nan 0
-nan -nan 0
-nan -nan 0
-nan -nan 0
-nan -nan 0
-nan -nan 0
-nan -nan 0
-nan -nan 0
-nan -nan 0
-nan -nan 0
-nan -nan 0
-nan -nan 0
-nan -nan 0
-nan -nan 0
-nan -nan 0
-nan -nan 0
-nan -nan 0
-nan -nan 0
-nan -nan 0
-nan -nan 0
-nan -nan 0
-nan -nan 0
-nan -nan 0
-nan -nan 0
-nan -nan 0
-nan -nan 0
-nan -nan 0
-nan -nan 0
-nan -nan 0
-nan -nan 0
-nan -nan 0
-nan -nan 0
-nan -nan 0
-nan -nan 0
-nan -nan 0
-nan -nan 0
-nan -nan 0
-nan -nan 0
-nan -nan 0
-nan -nan 0
-nan -nan 0
-nan -nan 0
-nan -nan 0
-nan -nan 0
-nan -nan 0
-nan -nan 0
-nan -nan 0
-nan -nan 0
-nan -nan 0
-nan -nan 0
-nan -nan 0
-nan -nan 0
-nan -nan 0
-nan -nan 0
-nan -nan 0
-nan -nan 0
-nan -nan 0
-nan -nan 0
-nan -nan 0
-nan -nan 0
-nan -nan 0
-nan -nan 0
-nan -nan 0
-nan -nan 0
      </DataArray> 
      <DataArray type="Float64" NumberOfComponents="3" Name="MeshDisp" format="ascii">
0 0 0
0 0 0
0 0 0
1 0 0
1 0 0
0 0 0
0 0 0
0 0 0
0 0 0
0 0 0
0 0 0
0 0 0
0 0 0
0 0 0
0 0 0
0 0 0
0 0 0
0 0 0
0 0 0
0 0 0
0.08553933601448772 0 0
0.1127404666872968 0 0
0.1359280019316088 0 0
0.1578139049988551 0 0
0.1789414743568689 0 0
0.1996177444998581 0 0
0.219955694931392 0 0
0.2400623219143531 0 0
0.2600049786536866 0 0
0.2798288558826387 0 0
0.2995640272481947 0 0
0.3192316597124665 0 0
0.338848154431392 0 0
0.3584248394819089 0 0
0.3779702762258967 0 0
0.3974912398800438 0 0
0.4169928024274367 0 0
0.4364789748939757 0 0
0.4559528459557093 0 0
0.4754168793001522 0 0
0.4948729997926503 0 0
0.5143227550595347 0 0
0.5337673611452124 0 0
0.5532078061612369 0 0
0.5726448737472167 0 0
0.5920792037506389 0 0
0.6115113058970378 0 0
0.6309415973946615 0 0
0.650370411653409 0 0
0.6697980228867668 0 0
0.6892246517396828 0 0
0.7086504803494823 0 0
0.7280756554434117 0 0
0.7475002979012219 0 0
0.7669245051313931 0 0
0.7863483577649506 0 0
0.8057719213864465 0 0
0.8251952498750749 0 0
0.8446183867324457 0 0
0.8640413698900177 0 0
0.8834642291313292 0 0
0.902886989731106 0 0
0.9223096735117325 0 0
0.9417323000367485 0 0
0.9611548860448003 0 0
0.9805774479742025 0 0
1 0 0
1 0 0
1 0 0
0.9999999999999999 0 0
0.9999999999999999 0 0
1 0 0
1 0 0
0.9999999999999999 0 0
1 0 0
1 0 0
0.9999999999999999 0 0
1 0 0
1 0 0
1 0 0
0.9806604677076287 0 0
0.9613209558195954 0 0
0.9419814792934198 0 0
0.9226420558179261 0 0
0.9033027047900405 0 0
0.8839634493050921 0 0
0.8646243191716144 0 0
0.8452853422684232 0 0
0.825946566474302 0 0
0.8066080330106296 0 0
0.7872698016102242 0 0
0.7679319496329454 0 0
0.7485945561954865 0 0
0.7292577399443019 0 0
0.7099216199025484 0 0
0.6905863760334373 0 0
0.6712521884484991 0 0
0.6519193371554692 0 0
0.6325880703690445 0 0
0.6132588311528807 0 0
0.5939320104542654 0 0
0.5746082524909085 0 0
0.5552882433119521 0 0
0.5359728360460775 0 0
0.5166631125109199 0 0
0.4973604229564467 0 0
0.4780663932782141 0 0
0.4587830910725271 0 0
0.439513111237995 0 0
0.4202594128983657 0 0
0.4010257811598597 0 0
0.3818173238452921 0 0
0.3626391737085681 0 0
0.3434993714411863 0 0
0.3244065816370517 0 0
0.3053717153182369 0 0
0.2864081550758206 0 0
0.2675315628908408 0 0
0.248761735735837 0 0
0.230121953848494 0 0
0.2116410190317385 0 0
0.1933551989913792 0 0
0.175299791524681 0 0
0.1575105263990095 0 0
0.1400233567722235 0 0
0.122883880277603 0 0
0.1061392960868847 0 0
0.08989728979402892 0 0
0.07433142071574902 0 0
0.05971086717286676 0 0
0.04620684864611847 0 0
0.03409112096636083 0 0
0.02350323960699549 0 0
0.01523280192019805 0 0
0.008920221768174173 0 0
0.004594687673129861 0 0
0.002031999121863431 0 0
0.0006186536318070979 0 0
0 0 0
0 0 0
0 0 0
0 0 0
0 0 0
0 0 0
0 0 0
0 0 0
0 0 0
0 0 0
0 0 0
0 0 0
0 0 0
0 0 0
0 0 0
0 0 0
0 0 0
0 0 0
0.05409421145885566 0 0
0.06643421672233382 0 0
0.1666704153914953 0 0
0.8366677843484234 0 0
0.7582630265315252 0 0
0.6809187696527057 0 0
0.6035942645202521 0 0
0.5273100867913432 0 0
0.4501153881958536 0 0
0.3722148269405608 0 0
0.2958608963843982 0 0
-0.0001318299911294024 0 0
0.2300658871288713 0 0
0.796654051769583 0 0
0.7183625449722953 0 0
0.6406567378942759 0 0
0.5629288550777319 0 0
0.4851496400591947 0 0
0.4072503667840919 0 0
0.3290549725632837 0 0
0.03004280089554704 0 0
0.06337506529081198 0 0
0.9815616399031872 0 0
0.03681888563758805 0 0
0.06078307334356826 0 0
0.03902590810709836 0 0
0.05796963136166536 0 0
0.8750545408755366 0 0
0.03908321069393627 0 0
0.05495270902046839 0 0
0.0733634707530553 0 0
0.06880765149729745 0 0
0.08673177737631547 0 0
0.0813472615635379 0 0
0.09880082614260277 0 0
0.06509170627854109 0 0
0.01884526752895343 0 0
0.2208592173774118 0 0
0.09280302285694891 0 0
0.1100295350522316 0 0
0.8950692016562962 0 0
-0.0007111250656821377 0 0
0.1034336334906608 0 0
0.1206170556000354 0 0
0.0001742199703994049 0 0
-0.0009936258169797353 0 0
0.1275551183339723 0 0
0.1380352019688983 0 0
0.1136991353505394 0 0
0.09686447282708928 0 0
0.9826303454217105 0 0
0.1455604196443075 0 0
0.1559120842248282 0 0
0.02188344234518754 0 0
0.02375147493210186 0 0
0.1637912232601426 0 0
0.1741237271387713 0 0
0.1067488758013518 0 0
0.09035856401549835 0 0
0.165715626172915 0 0
0.1842463736186336 0 0
0.1925716614011988 0 0
0.2026729540438801 0 0
0.2112480097278302 0 0
0.2212950052906187 0 0
0.2300199997525069 0 0
0.2400660264948178 0 0
0.2487345365885121 0 0
0.2589849020887268 0 0
0.2681213850792917 0 0
0.2780626101508925 0 0
0.2872633638734861 0 0
0.2971769599255905 0 0
0.3064600971297891 0 0
0.3163453893892709 0 0
0.325693447665422 0 0
0.3355540285434543 0 0
0.3447751459159334 0 0
0.354778100780768 0 0
0.3641325912351453 0 0
0.374067323089336 0 0
0.3835491059196529 0 0
0.3933796631259084 0 0
0.4028968398510785 0 0
0.4127028334359228 0 0
0.4222396368735086 0 0
0.4320354235820082 0 0
0.4415899574334928 0 0
0.4513774104463997 0 0
0.4609467375305289 0 0
0.470727875947242 0 0
0.4803091329093532 0 0
0.4900864855551228 0 0
0.4996760838743948 0 0
0.5094492804674573 0 0
0.5190464296069145 0 0
0.5288156012048078 0 0
0.5384193138510565 0 0
0.5481856036567481 0 0