<?xml version="1.0"?>
<VTKFile type="UnstructuredGrid">
  <UnstructuredGrid>
  <Piece NumberOfPoints="1224"  NumberOfCells="2290">
    <Points>
      <DataArray type="Float64" NumberOfComponents="3" format="ascii">
0 0 0
0.6 0 0
0.6 0.2 0
12 0.2 0
12 1 0
0 1 0
0.05454545454535233 0 0
0.1090909090906768 0 0
0.1636363636359771 0 0
0.2181818181812728 0 0
0.2727272727265793 0 0
0.3272727272720317 0 0
0.3818181818176247 0 0
0.4363636363632168 0 0
0.4909090909088285 0 0
0.5454545454544089 0 0
0.6 0.03999999999991203 0
0.6 0.07999999999979179 0
0.6 0.1199999999997886 0
0.6 0.1599999999998948 0
1.526027628563636 0.2 0
1.845149467731717 0.2 0
2.119139969072152 0.2 0
2.37552893240859 0.2 0
2.62116015805978 0.2 0
2.860061054212588 0.2 0
3.09437759461355 0.2 0
3.32554436696579 0.2 0
3.554445309925659 0.2 0
3.781669146461083 0.2 0
4.007635478485255 0.2 0
4.232646546385311 0.2 0
4.456922191943834 0.2 0
4.680632088478858 0.2 0
4.903899260815567 0.2 0
5.126816930189079 0.2 0
5.349458809048289 0.2 0
5.571881824258853 0.2 0
5.794130569887628 0.2 0
6.016239981129059 0.2 0
6.23823777172474 0.2 0
6.460145868572771 0.2 0
6.681981795920517 0.2 0
6.903759514473368 0.2 0
7.125490241259584 0.2 0
7.347182960121851 0.2 0
7.568844918163856 0.2 0
7.790481943203444 0.2 0
8.012098750380686 0.2 0
8.233699144416684 0.2 0
8.45528621082102 0.2 0
8.676862446447586 0.2 0
8.898429879977213 0.2 0
9.119990156942626 0.2 0
9.34154461285198 0.2 0
9.563094334020958 0.2 0
9.784640234819079 0.2 0
10.00618303979119 0.2 0
10.22772331920611 0.2 0
10.44926158454382 0.2 0
10.67079823364288 0.2 0
10.89233359659716 0.2 0
11.11386795650422 0.2 0
11.33540158840965 0.2 0
11.55693468196356 0.2 0
11.77846743045123 0.2 0
12 0.2533333333332341 0
12 0.3066666666664725 0
12 0.3599999999996274 0
12 0.413333333332804 0
12 0.4666666666659806 0
12 0.5199999999991571 0
12 0.5733333333323336 0
12 0.6266666666656895 0
12 0.6799999999991551 0
12 0.7333333333326146 0
12 0.7866666666660802 0
12 0.8399999999995775 0
12 0.8933333333330373 0
12 0.9466666666664969 0
11.77941434803907 1 0
11.55882886142729 1 0
11.3382437140663 1 0
11.11765909984548 1 0
10.89707522389695 1 0
10.67649232038083 1 0
10.45591068477827 1 0
10.23533061060675 1 0
10.0147525577173 1 0
9.794176949226904 1 0
9.573604379124324 1 0
9.353035595211825 1 0
9.132471397644123 1 0
8.911912922191513 1 0
8.691361369846936 1 0
8.470818449475765 1 0
8.250285955077072 1 0
8.029766536887092 1 0
7.809262748799413 1 0
7.588778643264889 1 0
7.368318187830284 1 0
7.147887322718076 1 0
6.927492677419023 1 0
6.707142376963604 1 0
6.48684670428664 1 0
6.266618297018829 1 0
6.046472601869794 1 0
5.82642883278079 1 0
5.606511134064629 1 0
5.386747286890007 1 0
5.167172402222586 1 0
4.947833839362291 1 0
4.728780098446244 1 0
4.510081739825511 1 0
4.291818167584438 1 0
4.074088062577863 1 0
3.857012515061559 1 0
3.64073715332431 1 0
3.425440139204571 1 0
3.211329434976945 1 0
2.998654622173412 1 0
2.787721964295456 1 0
2.578877593341781 1 0
2.372542679847596 1 0
2.169226752496938 1 0
1.969620897530115 1 0
1.774402696774155 1 0
1.584658339719424 1 0
1.401679060372171 1 0
1.226809655295855 1 0
1.060544781712355 1 0
0.9034810156829697 1 0
0.7551204099727632 1 0
0.6161064876610123 1 0
0.4841405776514726 1 0
0.358025750999178 1 0
0.2362842792253665 1 0
0.1173302868460038 1 0
0 0.9473684210524125 0
0 0.8947368421048248 0
0 0.8421052631576025 0
0 0.7894736842105994 0
0 0.7368421052635962 0
0 0.6842105263165927 0
0 0.6315789473695894 0
0 0.5789473684225861 0
0 0.5263157894755828 0
0 0.4736842105282874 0
0 0.4210526315806998 0
0 0.3684210526331123 0
0 0.3157894736855248 0
0 0.2631578947379374 0
0 0.21052631579035 0
0 0.1578947368427625 0
0 0.1052631578951749 0
0 0.05263157894758741 0
1.158504017862239 0.955462795473483 0
1.316350565631268 0.2394317949808221 0
2.478849844303523 0.9557759867023439 0
10.13703879101513 0.9559758769411787 0
9.242751003789641 0.9559648099769389 0
8.360546583111375 0.9559648099769389 0
7.478535774933311 0.9559648099772646 0
6.608314457334844 0.9560078743553572 0
5.727512623366735 0.9561420672712786 0
4.838163188962547 0.95627738856474 0
3.965240553397121 0.9563034567995272 0
0.07881310176877399 0.5498854761242812 0
3.210668597747146 0.2442383967812095 0
9.680641531149261 0.2421522008426663 0
8.787640354058977 0.243586373321511 0
7.901299099395906 0.24363095694403 0
7.014654544974993 0.2436741865527954 0
6.127294971320242 0.2437170671454607 0
5.238239385277381 0.2437587738062726 0
4.344973076976855 0.2442249255777628 0
0.9219195708797193 0.2417757800606361 0
1.281483999962606 0.2785115072887754 0
11.78969308101003 0.5995349944823752 0
0.9910581193724737 0.2791940688436214 0
1.251750928912784 0.3180386921514113 0
1.011121638812305 0.3181181454258206 0
1.219198984671281 0.3577335228902347 0
10.57487755847517 0.2416532643303031 0
1.0077854943624 0.3576683284772433 0
1.183815561154794 0.3976917483469583 0
1.393325863269391 0.3977458985417416 0
1.340921081369686 0.4382323507424581 0
1.546872625963273 0.4382172989803606 0
1.484946032655701 0.4790536480492864 0
1.686996974931056 0.4792447281197085 0
1.297609871452433 0.4817209888486334 0
0.6798497487603112 0.9660670791366374 0
3.104791757866895 0.9559852449915113 0
1.617733232832936 0.5203953730037822 0
1.818058991693579 0.5205851219036783 0
10.80316417824278 0.9563165682871465 0
0.06197943181363502 0.2894490564426765 0
1.741591407493935 0.5622881188475496 0
1.941869210745164 0.5621981517123112 0
0.08390307764110118 0.7091098825652095 0
0.3154920651622171 0.04723774929726795 0
2.022572541719117 0.5200372393771872 0
2.145163485431759 0.562505099575485 0
1.86147230216611 0.6041261864689124 0
1.665409817047184 0.6041581669226386 0
11.80188267487238 0.4393531299125908 0
2.23280951105098 0.5199435586712576 0
2.35354986125978 0.5624873891767795 0
0.8219601066596659 0.3174350849704655 0
0.8347244192150542 0.3576870257641042 0
2.445161457510618 0.5195844107098163 0
2.565146761493024 0.5621174250913318 0
1.780724208564322 0.6460588488486728 0
1.589843342980586 0.6462390077748084 0
2.467584875844593 0.6067218912904607 0
2.682412271940108 0.6047738158182728 0
2.778686217033246 0.5617915498272615 0
2.895292482549259 0.6045430073239006 0
2.994142844859673 0.5614360364847856 0
3.10981108806864 0.6046345614192383 0
3.210156408311089 0.5613114208485291 0
3.325596399832073 0.604758732930365 0
3.4251254408234 0.5597386087889248 0
3.54273319991551 0.6042836632406788 0
3.647496063206686 0.5607219500906248 0
3.761422667173537 0.6043040651294929 0
3.866810674914896 0.5598592244124957 0
3.98030793726496 0.6040638744783449 0
4.086544721833401 0.5595216793632644 0
4.199629819052971 0.6038781229769293 0
4.306534939809191 0.5600604284234054 0
4.419267924549704 0.6038664424080111 0
4.524662879953584 0.55874807111347 0
4.638966944124121 0.6035341865995129 0
4.74583932894558 0.5586520846649797 0
4.859321153240188 0.6034054551655909 0
4.967611796804198 0.558835304845746 0
5.079869476457624 0.6032503772964327 0
5.188534933665427 0.5587079795953892 0
5.300485337875021 0.6030926920218221 0
5.409351726010962 0.5580480170404921 0
5.521164337212564 0.6028436706904448 0
5.630214476756323 0.5577680566445021 0
5.741915115208984 0.6026435181305781 0
5.851119413589879 0.5575726351194972 0
5.962734530822117 0.6024617369905624 0
6.072063198399658 0.5573842056888257 0
6.183624415797046 0.6022873884346892 0
6.293038922339671 0.5572075399874397 0
6.404544239241965 0.6021111834258887 0
6.514037478084251 0.5570246051384745 0
6.625490132623635 0.6019307913070558 0
6.735052354505022 0.5568475628142857 0
6.846466775658045 0.6017522495250318 0
6.956082379902662 0.5566653603575672 0
7.067475162181387 0.601574020443024 0
7.17712535096258 0.5564884669211013 0
7.288493089045888 0.601395113412113 0
7.398176635916189 0.5563067813822595 0
7.509502219208158 0.6012129143420911 0
7.61923140371364 0.5561292537946573 0
7.730539519806724 0.601032757987411 0
7.840294443529647 0.5559477304122714 0
7.951611281032051 0.600855564813206 0
8.061366495891384 0.5557710179709322 0
8.17267270084062 0.6006760179252703 0
8.282439931976414 0.5555900146741853 0
8.393727925998556 0.6004921726308964 0
8.503513811098104 0.5554125217101814 0
8.614793749513566 0.6003111949874665 0
8.724590562614289 0.5552312296013228 0
8.835850645923944 0.6001298880828497 0
8.945668283175943 0.5550546947866846 0
9.056926510349223 0.599950595338254 0
9.166759090703183 0.5548708301001631 0
9.278033446226173 0.5997713467128002 0
9.387892724983798 0.5547000681173012 0
9.499192481655085 0.5996004731097838 0
9.609099644675055 0.5545095609010697 0
9.720406857129301 0.5994220729206983 0
9.830433365548716 0.5543494429014709 0
9.941693500453278 0.5993228147833797 0
10.05199412482817 0.5541346321759457 0
10.16354851528184 0.5992395038842441 0
10.27415362288712 0.5540180644105763 0
11.82189235556707 0.7598964409357507 0
10.38622723539483 0.5990918128353608 0
0.6922521908987448 0.3159793431387367 0
0.704501316809346 0.357715436029677 0
0.5966097817435368 0.3157219358498637 0
0.6001435953871648 0.3576135465858128 0
9.609823495172137 0.643990885448769 0
8.726030257451619 0.6444881680698032 0
3.438755864789713 0.6487487015028032 0
7.841845710075241 0.6452136474256573 0
6.957829341433165 0.6459229900926835 0
0.5149935443690198 0.3150377509381005 0
0.5101311817029079 0.3574251905568473 0
0.5945080827292623 0.4002519798591844 0
6.074245693488008 0.6466170330762969 0
4.312426016035807 0.6479317947648683 0
5.191924320611419 0.6473399689389928 0
2.798438530835681 0.6483605753517908 0
1.70141942879889 0.6883083412871458 0
1.514858256054446 0.6885103796531055 0
10.49697179407866 0.5527758280498023 0
3.748926034742544 0.5148848291986879 0
10.2752309230755 0.6438096025956825 0
10.49832279836811 0.6437140715169269 0
4.853136721326595 0.5138574114565649 0
5.737783598868315 0.5115839513085039 0
6.622284816000098 0.5109012431757174 0
7.506825528615003 0.510388685431229 0
0.4980858544789849 0.4001745965167012 0
0.5801382968952801 0.4433206937839571 0
8.391384113897717 0.5096846626216972 0
[...]
    <PointData>
      <DataArray type="Float64" NumberOfComponents="3" Name="Velocity" format="ascii">
-nan -nan 0
-nan -nan 0
-nan -nan 0
-nan -nan 0
-nan -nan 0
-nan -nan 0
-nan -nan 0
-nan -nan 0
-nan -nan 0
-nan -nan 0
-nan -nan 0
-nan -nan 0
-nan -nan 0
-nan -nan 0
-nan -nan 0
-nan -nan 0
-nan -nan 0
-nan -nan 0
-nan -nan 0
-nan -nan 0
-nan -nan 0
-nan -nan 0
-nan -nan 0
-nan -nan 0
-nan -nan 0
-nan -nan 0
-nan -nan 0
-nan -nan 0
-nan -nan 0
-nan -nan 0
-nan -nan 0
-nan -nan 0
-nan -nan 0
-nan -nan 0
-nan -nan 0
-nan -nan 0
-nan -nan 0
-nan -nan 0
-nan -nan 0
-nan -nan 0
-nan -nan 0
-nan -nan 0
-nan -nan 0
-nan -nan 0
-nan -nan 0
-nan -nan 0
-nan -nan 0
-nan -nan 0
-nan -nan 0
-nan -nan 0
-nan -nan 0
-nan -nan 0
-nan -nan 0
-nan -nan 0
-nan -nan 0
-nan -nan 0
-nan -nan 0
-nan -nan 0
-nan -nan 0
-nan -nan 0
-nan -nan 0
-nan -nan 0
-nan -nan 0
-nan -nan 0
-nan -nan 0
-nan -nan 0
-nan -nan 0
-nan -nan 0
-nan -nan 0
-nan -nan 0
-nan -nan 0
-nan -nan 0
-nan -nan 0
-nan -nan 0
-nan -nan 0
-nan -nan 0
-nan -nan 0
-nan -nan 0
-nan -nan 0
-nan -nan 0
-nan -nan 0
-nan -nan 0
-nan -nan 0
-nan -nan 0
-nan -nan 0
-nan -nan 0
-nan -nan 0
-nan -nan 0
-nan -nan 0
-nan -nan 0
-nan -nan 0
-nan -nan 0
-nan -nan 0
-nan -nan 0
-nan -nan 0
-nan -nan 0
-nan -nan 0
-nan -nan 0
-nan -nan 0
-nan -nan 0
-nan -nan 0
-nan -nan 0
-nan -nan 0
-nan -nan 0
-nan -nan 0
-nan -nan 0
-nan -nan 0
-nan -nan 0
-nan -nan 0
-nan -nan 0
-nan -nan 0
-nan -nan 0
-nan -nan 0
-nan -nan 0
-nan -nan 0
-nan -nan 0
-nan -nan 0
-nan -nan 0
-nan -nan 0
-nan -nan 0
-nan -nan 0
-nan -nan 0
-nan -nan 0
-nan -nan 0
-nan -nan 0
-nan -nan 0
-nan -nan 0
-nan -nan 0
-nan -nan 0
-nan -nan 0
-nan -nan 0
-nan -nan 0
-nan -nan 0
-nan -nan 0
-nan -nan 0
-nan -nan 0
-nan -nan 0
-nan -nan 0
-nan -nan 0
-nan -nan 0
-nan -nan 0
-nan -nan 0
-nan -nan 0
-nan -nan 0
-nan -nan 0
-nan -nan 0
-nan -nan 0
-nan -nan 0
-nan -nan 0
-nan -nan 0
-nan -nan 0
-nan -nan 0
-nan -nan 0
-nan -nan 0
-nan -nan 0
-nan -nan 0
-nan -nan 0
-nan -nan 0
-nan -nan 0
-nan -nan 0
-nan -nan 0
-nan -nan 0
-nan -nan 0
-nan -nan 0
-nan -nan 0
-nan -nan 0
-nan -nan 0
-nan -nan 0
-nan -nan 0
-nan -nan 0
-nan -nan 0
-nan -nan 0
-nan -nan 0
-nan -nan 0
-nan -nan 0
-nan -nan 0
-nan -nan 0
-nan -nan 0
-nan -nan 0
-nan -nan 0
-nan -nan 0
-nan -nan 0
-nan -nan 0
-nan -nan 0
-nan -nan 0
-nan -nan 0
-nan -nan 0
-nan -nan 0
-nan -nan 0
-nan -nan 0
-nan -nan 0
-nan -nan 0
-nan -nan 0
-nan -nan 0
-nan -nan 0
-nan -nan 0
-nan -nan 0
-nan -nan 0
-nan -nan 0
-nan -nan 0
-nan -nan 0
-nan -nan 0
-nan -nan 0
-nan -nan 0
-nan -nan 0
-nan -nan 0
-nan -nan 0
-nan -nan 0
-nan -nan 0
-nan -nan 0
-nan -nan 0
-nan -nan 0
-nan -nan 0
-nan -nan 0
-nan -nan 0
-nan -nan 0
-nan -nan 0
-nan -nan 0
-nan -nan 0
-nan -nan 0
-nan -nan 0
-nan -nan 0
-nan -nan 0
-nan -nan 0
-nan -nan 0
-nan -nan 0
-nan -nan 0
-nan -nan 0
-nan -nan 0
-nan -nan 0
-nan -nan 0
-nan -nan 0
-nan -nan 0
-nan -nan 0
-nan -nan 0
-nan -nan 0
-nan -nan 0
-nan -nan 0
-nan -nan 0
-nan -nan 0
-nan -nan 0
-nan -nan 0
-nan -nan 0
-nan -nan 0
-nan -nan 0
-nan -nan 0
-nan -nan 0
-nan -nan 0
-nan -nan 0
-nan -nan 0
-nan -nan 0
-nan -nan 0
-nan -nan 0
-nan -nan 0
-nan -nan 0
-nan -nan 0
-nan -nan 0
-nan -nan 0
-nan -nan 0
-nan -nan 0
-nan -nan 0
-nan -nan 0
-nan -nan 0
-nan -nan 0
-nan -nan 0
-nan -nan 0
-nan -nan 0
-nan -nan 0
-nan -nan 0
-nan -nan 0
-nan -nan 0
-nan -nan 0
-nan -nan 0
-nan -nan 0
-nan -nan 0
-nan -nan 0
-nan -nan 0
-nan -nan 0
-nan -nan 0
-nan -nan 0
-nan -nan 0
-nan -nan 0
-nan -nan 0
-nan -nan 0
-nan -nan 0
-nan -nan 0
-nan -nan 0
-nan -nan 0
-nan -nan 0
-nan -nan 0
-nan -nan 0
-nan -nan 0
-nan -nan 0
-nan -nan 0
-nan -nan 0
-nan -nan 0
-nan -nan 0
-nan -nan 0
-nan -nan 0
-nan -nan 0
-nan -nan 0
-nan -nan 0
-nan -nan 0
-nan -nan 0
-nan -nan 0
-nan -nan 0
-nan -nan 0
-nan -nan 0
-nan -nan 0
-nan -nan 0
-nan -nan 0
-nan -nan 0
-nan -nan 0
-nan -nan 0
-nan -nan 0
-nan -nan 0
-nan -nan 0
-nan -nan 0
-nan -nan 0
-nan -nan 0
-nan -nan 0
-nan -nan 0
-nan -nan 0
-nan -nan 0
-nan -nan 0
-nan -nan 0
-nan -nan 0
-nan -nan 0
-nan -nan 0
-nan -nan 0
-nan -nan 0
-nan -nan 0
-nan -nan 0
-nan -nan 0
-nan -nan 0
-nan -nan 0
-nan -nan 0
-nan -nan 0
-nan -nan 0
-nan -nan 0
-nan -nan 0
-nan -nan 0
-nan -nan 0
-nan -nan 0
-nan -nan 0
-nan -nan 0
-nan -nan 0
-nan -nan 0
-nan -nan 0
-nan -nan 0
-nan -nan 0
-nan -nan 0
-nan -nan 0
-nan -nan 0
-nan -nan 0
-nan -nan 0
-nan -nan 0
-nan -nan 0
-nan -nan 0
-nan -nan 0
-nan -nan 0
-nan -nan 0
-nan -nan 0
-nan -nan 0
-nan -nan 0
-nan -nan 0
-nan -nan 0
-nan -nan 0
-nan -nan 0
-nan -nan 0
-nan -nan 0
-nan -nan 0
-nan -nan 0
-nan -nan 0
-nan -nan 0
-nan -nan 0
-nan -nan 0
-nan -nan 0
-nan -nan 0
-nan -nan 0
-nan -nan 0
-nan -nan 0
-nan -nan 0
-nan -nan 0
-nan -nan 0
-nan -nan 0
-nan -nan 0
-nan -nan 0
-nan -nan 0
-nan -nan 0
-nan -nan 0
-nan -nan 0
-nan -nan 0
-nan -nan 0
-nan -nan 0
-nan -nan 0
-nan -nan 0
-nan -nan 0
-nan -nan 0
-nan -nan 0
-nan -nan 0
-nan -nan 0
-nan -nan 0
-nan -nan 0
-nan -nan 0
-nan -nan 0
-nan -nan 0
-nan -nan 0
-nan -nan 0
-nan -nan 0
-nan -nan 0
-nan -nan 0
-nan -nan 0
-nan -nan 0
-nan -nan 0
-nan -nan 0
-nan -nan 0
-nan -nan 0
-nan -nan 0
-nan -nan 0
-nan -nan 0
-nan -nan 0
-nan -nan 0
-nan -nan 0
-nan -nan 0
-nan -nan 0
-nan -nan 0
-nan -nan 0
-nan -nan 0
-nan -nan 0
-nan -nan 0
-nan -nan 0
-nan -nan 0
-nan -nan 0
-nan -nan 0
-nan -nan 0
-nan -nan 0
-nan -nan 0
-nan -nan 0
-nan -nan 0
-nan -nan 0
-nan -nan 0
-nan -nan 0
-nan -nan 0
-nan -nan 0
-nan -nan 0
-nan -nan 0
-nan -nan 0
-nan -nan 0
-nan -nan 0
-nan -nan 0
-nan -nan 0
-nan -nan 0
-nan -nan 0
-nan -nan 0
-nan -nan 0
-nan -nan 0
-nan -nan 0
-nan -nan 0
-nan -nan 0
-nan -nan 0
-nan -nan 0
-nan -nan 0
-nan -nan 0
-nan -nan 0
-nan -nan 0
-nan -nan 0
-nan -nan 0
-nan -nan 0
-nan -nan 0
-nan -nan 0
-nan -nan 0
-nan -nan 0
-nan -nan 0
-nan -nan 0
-nan -nan 0
-nan -nan 0
-nan -nan 0
-nan -nan 0
-nan -nan 0
-nan -nan 0
-nan -nan 0
-nan -nan 0
-nan -nan 0
-nan -nan 0
-nan -nan 0
-nan -nan 0
-nan -nan 0
-nan -nan 0
-nan -nan 0
-nan -nan 0
-nan -nan 0
-nan -nan 0
-nan -nan 0
-nan -nan 0
-nan -nan 0
-nan -nan 0
-nan -nan 0
-nan -nan 0
-nan -nan 0
-nan -nan 0
-nan -nan 0
-nan -nan 0
-nan -nan 0
-nan -nan 0
-nan -nan 0
-nan -nan 0
-nan -nan 0
-nan -nan 0
-nan -nan 0
-nan -nan 0
-nan -nan 0
-nan -nan 0
-nan -nan 0
-nan -nan 0
-nan -nan 0
-nan -nan 0
-nan -nan 0
-nan -nan 0
-nan -nan 0
-nan -nan 0
-nan -nan 0
-nan -nan 0
-nan -nan 0
-nan -nan 0
-nan -nan 0
-nan -nan 0
-nan -nan 0
-nan -nan 0
-nan -nan 0
-nan -nan 0
-nan -nan 0
-nan -nan 0
-nan -nan 0
-nan -nan 0
-nan -nan 0
-nan -nan 0
-nan -nan 0
-nan -nan 0
-nan -nan 0
-nan -nan 0
-nan -nan 0
-nan -nan 0
-nan -nan 0
-nan -nan 0
-nan -nan 0
-nan -nan 0
-nan -nan 0
-nan -nan 0
-nan -nan 0
-nan -nan 0
-nan -nan 0
-nan -nan 0
-nan -nan 0
-nan -nan 0
-nan -nan 0
-nan -nan 0
-nan -nan 0
-nan -nan 0
-nan -nan 0
-nan -nan 0
-nan -nan 0
-nan -nan 0
-nan -nan 0
-nan -nan 0
-nan -nan 0
-nan -nan 0
-nan -nan 0
-nan -nan 0
-nan -nan 0
-nan -nan 0
-nan -nan 0
-nan -nan 0
-nan -nan 0
-nan -nan 0
-nan -nan 0
-nan -nan 0
-nan -nan 0
-nan -nan 0
-nan -nan 0
-nan -nan 0
-nan -nan 0
-nan -nan 0
-nan -nan 0
-nan -nan 0
-nan -nan 0
-nan -nan 0
-nan -nan 0
-nan -nan 0
-nan -nan 0
-nan -nan 0
-nan -nan 0
-nan -nan 0
-nan -nan 0
-nan -nan 0
-nan -nan 0
-nan -nan 0
-nan -nan 0
-nan -nan 0
-nan -nan 0
-nan -nan 0
-nan -nan 0
-nan -nan 0
-nan -nan 0
-nan -nan 0
-nan -nan 0
-nan -nan 0
-nan -nan 0
-nan -nan 0
-nan -nan 0
-nan -nan 0
-nan -nan 0
-nan -nan 0
-nan -nan 0
-nan -nan 0
-nan -nan 0
-nan -nan 0
-nan -nan 0
-nan -nan 0
-nan -nan 0
-nan -nan 0
-nan -nan 0
-nan -nan 0
-nan -nan 0
-nan -nan 0
-nan -nan 0
-nan -nan 0
-nan -nan 0
-nan -nan 0
-nan -nan 0
-nan -nan 0
-nan -nan 0
-nan -nan 0
-nan -nan 0
-nan -nan 0
-nan -nan 0
-nan -nan 0
-nan -nan 0
-nan -nan 0
-nan -nan 0
-nan -nan 0
-nan -nan 0
-nan -nan 0
-nan -nan 0
-nan -nan 0
-nan -nan 0
-nan -nan 0
-nan -nan 0
-nan -nan 0
-nan -nan 0
-nan -nan 0
-nan -nan 0
-nan -nan 0
-nan -nan 0
-nan -nan 0
-nan -nan 0
-nan -nan 0
-nan -nan 0
-nan -nan 0
-nan -nan 0
-nan -nan 0
-nan -nan 0
-nan -nan 0
-nan -nan 0
-nan -nan 0
-nan -nan 0
-nan -nan 0
-nan -nan 0
-nan -nan 0
-nan -nan 0
-nan -nan 0
-nan -nan 0
-nan -nan 0
-nan -nan 0
-nan -nan 0
-nan -nan 0
-nan -nan 0
-nan -nan 0
-nan -nan 0
-nan -nan 0
-nan -nan 0
-nan -nan 0
-nan -nan 0
-nan -nan 0
-nan -nan 0
-nan -nan 0
-nan -nan 0
-nan -nan 0
-nan -nan 0
-nan -nan 0
-nan -nan 0
-nan -nan 0
-nan -nan 0
-nan -nan 0
-nan -nan 0
-nan -nan 0
-nan -nan 0
-nan -nan 0
-nan -nan 0
-nan -nan 0
-nan -nan 0
-nan -nan 0
-nan -nan 0
-nan -nan 0
-nan -nan 0
-nan -nan 0
-nan -nan 0
-nan -nan 0
-nan -nan 0
-nan -nan 0
-nan -nan 0
-nan -nan 0
-nan -nan 0
-nan -nan 0
-nan -nan 0
-nan -nan 0
-nan -nan 0
-nan -nan 0
-nan -nan 0
-nan -nan 0
-nan -nan 0
-nan -nan 0
-nan -nan 0
-nan -nan 0
-nan -nan 0
-nan -nan 0
-nan -nan 0
-nan -nan 0
-nan -nan 0
-nan -nan 0
-nan -nan 0
-nan -nan 0
-nan -nan 0
-nan -nan 0
-nan -nan 0
-nan -nan 0
-nan -nan 0
-nan -nan 0
-nan -nan 0
-nan -nan 0
-nan -nan 0
-nan -nan 0
-nan -nan 0
-nan -nan 0
-nan -nan 0
-nan -nan 0
-nan -nan 0
-nan -nan 0
-nan -nan 0
-nan -nan 0
-nan -nan 0
-nan -nan 0
-nan -nan 0
-nan -nan 0
-nan -nan 0
-nan -nan 0
-nan -nan 0
-nan -nan 0
-nan -nan 0
-nan -nan 0
-nan -nan 0
-nan -nan 0
-nan -nan 0
-nan -nan 0
-nan -nan 0
-nan -nan 0
-nan -nan 0
-nan -nan 0
-nan -nan 0
-nan -nan 0
-nan -nan 0
-nan -nan 0
-nan -nan 0
-nan -nan 0
-nan -nan 0
-nan -nan 0
-nan -nan 0
-nan -nan 0
-nan -nan 0
-nan -nan 0
-nan -nan 0
-nan -nan 0
-nan -nan 0
-nan -nan 0
-nan -nan 0
-nan -nan 0
-nan -nan 0
-nan -nan 0
-nan -nan 0
-nan -nan 0
-nan -nan 0
-nan -nan 0
-nan -nan 0
-nan -nan 0
-nan -nan 0
-nan -nan 0
-nan -nan 0
-nan -nan 0
-nan -nan 0
-nan -nan 0
-nan -nan 0
-nan -nan 0
-nan -nan 0
-nan -nan 0
-nan -nan 0
-nan -nan 0
-nan -nan 0
-nan -nan 0
-nan -nan 0
-nan -nan 0
-nan -nan 0
-nan -nan 0
-nan -nan 0
-nan -nan 0
-nan -nan 0
-nan -nan 0
-nan -nan 0
-nan -nan 0
-nan -nan 0
-nan -nan 0
-nan -nan 0
-nan -nan 0
-nan -nan 0
-nan -nan 0
-nan -nan 0
-nan -nan 0
-nan -nan 0
-nan -nan 0
-nan -nan 0
-nan -nan 0
-nan -nan 0
-nan -nan 0
-nan -nan 0
-nan -nan 0
-nan -nan 0
-nan -nan 0
-nan -nan 0
-nan -nan 0
-nan -nan 0
-nan -nan 0
-nan -nan 0
-nan -nan 0
-nan -nan 0
-nan -nan 0
-nan -nan 0
-nan -nan 0
-nan -nan 0
-nan -nan 0
-nan -nan 0
-nan -nan 0
-nan -nan 0
-nan -nan 0
-nan -nan 0
-nan -nan 0
-nan -nan 0
-nan -nan 0
-nan -nan 0
-nan -nan 0
-nan -nan 0
-nan -nan 0
-nan -nan 0
-nan -nan 0
-nan -nan 0
-nan -nan 0
-nan -nan 0
-nan -nan 0
-nan -nan 0
-nan -nan 0
-nan -nan 0
-nan -nan 0
-nan -nan 0
-nan -nan 0
-nan -nan 0
-nan -nan 0
-nan -nan 0
-nan -nan 0
-nan -nan 0
-nan -nan 0
-nan -nan 0
-nan -nan 0
-nan -nan 0
-nan -nan 0
-nan -nan 0
-nan -nan 0
-nan -nan 0
-nan -nan 0
-nan -nan 0
-nan -nan 0
-nan -nan 0
-nan -nan 0
-nan -nan 0
-nan -nan 0
-nan -nan 0
-nan -nan 0
-nan -nan 0
-nan -nan 0
-nan -nan 0
-nan -nan 0
-nan -nan 0
-nan -nan 0
-nan -nan 0
-nan -nan 0
-nan -nan 0
-nan -nan 0
-nan -nan 0
-nan -nan 0
-nan -nan 0
-nan -nan 0
-nan -nan 0
-nan -nan 0
-nan -nan 0
-nan -nan 0
-nan -nan 0
-nan -nan 0
-nan -nan 0
-nan -nan 0
-nan -nan 0
-nan -nan 0
-nan -nan 0
-nan -nan 0
-nan -nan 0
-nan -nan 0
-nan -nan 0
-nan -nan 0
-nan -nan 0
-nan -nan 0
-nan -nan 0
-nan -nan 0
-nan -nan 0
-nan -nan 0
-nan -nan 0
-nan -nan 0
-nan -nan 0
-nan -nan 0
-nan -nan 0
-nan -nan 0
-nan -nan 0
-nan -nan 0
-nan -nan 0
-nan -nan 0
-nan -nan 0
-nan -nan 0
-nan -nan 0
-nan -nan 0
-nan -nan 0
-nan -nan 0
-nan -nan 0
-nan -nan 0
-nan -nan 0
-nan -nan 0
-nan -nan 0
-nan -nan 0
-nan -nan 0
-nan -nan 0
-nan -nan 0
-nan -nan 0
-nan -nan 0
-nan -nan 0
-nan -nan 0
-nan -nan 0
-nan -nan 0
-nan -nan 0
-nan -nan 0
-nan -nan 0
-nan -nan 0
-nan -nan 0
-nan -nan 0
-nan -nan 0
-nan -nan 0
-nan -nan 0
-nan -nan 0
-nan -nan 0
-nan -nan 0
-nan -nan 0
-nan -nan 0
-nan -nan 0
-nan -nan 0
-nan -nan 0
-nan -nan 0
-nan -nan 0
-nan -nan 0
-nan -nan 0
-nan -nan 0
-nan -nan 0
-nan -nan 0
-nan -nan 0
-nan -nan 0
-nan -nan 0
-nan -nan 0
-nan -nan 0
-nan -nan 0
-nan -nan 0
-nan -nan 0
-nan -nan 0
-nan -nan 0
-nan -nan 0
-nan -nan 0
-nan -nan 0
-nan -nan 0
-nan -nan 0
-nan -nan 0
-nan -nan 0
-nan -nan 0
-nan -nan 0
-nan -nan 0
-nan -nan 0
-nan -nan 0
-nan -nan 0
-nan -nan 0
-nan -nan 0
-nan -nan 0
-nan -nan 0
-nan -nan 0
-nan -nan 0
-nan -nan 0
-nan -nan 0
-nan -nan 0
-nan -nan 0
-nan -nan 0
-nan -nan 0
-nan -nan 0
-nan -nan 0
-nan -nan 0
-nan -nan 0
-nan -nan 0
-nan -nan 0
-nan -nan 0
-nan -nan 0
-nan -nan 0
-nan -nan 0
-nan -nan 0
-nan -nan 0
-nan -nan 0
-nan -nan 0
-nan -nan 0
-nan -nan 0
-nan -nan 0
-nan -nan 0
-nan -nan 0
-nan -nan 0
-nan -nan 0
-nan -nan 0
-nan -nan 0
-nan -nan 0
-nan -nan 0
-nan -nan 0
-nan -nan 0
-nan -nan 0
-nan -nan 0
-nan -nan 0
-nan -nan 0
-nan -nan 0
-nan -nan 0
-nan -nan 0
-nan -nan 0
-nan -nan 0
-nan -nan 0
-nan -nan 0
-nan -nan 0
-nan -nan 0
-nan -nan 0
-nan -nan 0
-nan -nan 0
-nan -nan 0
-nan -nan 0
-nan -nan 0
-nan -nan 0
-nan -nan 0
-nan -nan 0
-nan -nan 0
-nan -nan 0
-nan -nan 0
-nan -nan 0
-nan -nan 0
-nan -nan 0
-nan -nan 0
-nan -nan 0
-nan -nan 0
-nan -nan 0
-nan -nan 0
-nan -nan 0
-nan -nan 0
-nan -nan 0
-nan -nan 0
-nan -nan 0
-nan -nan 0
-nan -nan 0
-nan -nan 0
-nan -nan 0
-nan -nan 0
-nan -nan 0
-nan -nan 0
-nan -nan 0
-nan -nan 0
-nan -nan 0
-nan -nan 0
-nan -nan 0
-nan -nan 0
-nan -nan 0
-nan -nan 0
-nan -nan 0
-nan -nan 0
-nan -nan 0
-nan -nan 0
-nan -nan 0
-nan -nan 0
-nan -nan 0
-nan -nan 0
-nan -nan 0
-nan -nan 0
-nan -nan 0
-nan -nan 0
-nan -nan 0
-nan -nan 0
-nan -nan 0
-nan -nan 0
-nan -nan 0
-nan -nan 0
-nan -nan 0
-nan -nan 0
-nan -nan 0
-nan -nan 0
-nan -nan 0
-nan -nan 0
-nan -nan 0
-nan -nan 0
-nan -nan 0
-nan -nan 0
-nan -nan 0
-nan -nan 0
-nan -nan 0
-nan -nan 0
-nan -nan 0
-nan -nan 0
-nan -nan 0
-nan -nan 0
-nan -nan 0
-nan -nan 0
-nan -nan 0
-nan -nan 0
-nan -nan 0
-nan -nan 0
-nan -nan 0
-nan -nan 0
-nan -nan 0
-nan -nan 0
-nan -nan 0
-nan -nan 0
-nan -nan 0
-nan -nan 0
-nan -nan 0
-nan -nan 0
-nan -nan 0
-nan -nan 0
-nan -nan 0
-nan -nan 0
-nan -nan 0
-nan -nan 0
-nan -nan 0
-nan -nan 0
-nan -nan 0
-nan -nan 0
-nan -nan 0
-nan -nan 0
-nan -nan 0
-nan -nan 0
-nan -nan 0
-nan -nan 0
-nan -nan 0
-nan -nan 0
-nan -nan 0
-nan -nan 0
-nan -nan 0
-nan -nan 0
-nan -nan 0
-nan -nan 0
-nan -nan 0
-nan -nan 0
-nan -nan 0
-nan -nan 0
-nan -nan 0
-nan -nan 0
-nan -nan 0
-nan -nan 0
-nan -nan 0
-nan -nan 0
-nan -nan 0
-nan -nan 0
-nan -nan 0
-nan -nan 0
-nan -nan 0
-nan -nan 0
-nan -nan 0
-nan -nan 0
-nan -nan 0
-nan -nan 0
-nan -nan 0
-nan -nan 0
-nan -nan 0
-nan -nan 0
-nan -nan 0
-nan -nan 0
-nan -nan 0
-nan -nan 0
-nan -nan 0
-nan -nan 0
-nan -nan 0
-nan -nan 0
-nan -nan 0
-nan -nan 0
-nan -nan 0
-nan -nan 0
-nan -nan 0
-nan -nan 0
-nan -nan 0
-nan -nan 0
-nan -nan 0
-nan -nan 0
-nan -nan 0
-nan -nan 0
-nan -nan 0
-nan -nan 0
-nan -nan 0
-nan -nan 0
      </DataArray> 
      <DataArray type="Float64" NumberOfComponents="3" Name="MeshDisp" format="ascii">
0 0 0
0 0 0
0 0 0
1 0 0
1 0 0
0 0 0
0 0 0
0 0 0
0 0 0
0 0 0
0 0 0
0 0 0
0 0 0
0 0 0
0 0 0
0 0 0
0 0 0
0 0 0
0 0 0
0 0 0
0.09937340861751282 0 0
0.127024159202747 0 0
0.1501592185281879 0 0
0.1720517194680047 0 0
0.193124945519604 0 0
0.2136642309868691 0 0
0.2338172200894733 0 0
0.253702874497342 0 0
0.2733951400862129 0 0
0.292943762541426 0 0
0.3123844337014804 0 0
0.331743001327072 0 0
0.3510383291941724 0 0
0.3702849948461803 0 0
0.3894935754856457 0 0
0.4086720887453909 0 0
0.4278268752762734 0 0
0.4469628323331704 0 0
0.4660837963648713 0 0
0.4851927729299818 0 0
0.5042921463308462 0 0
0.5233838030191497 0 0
0.5424692506737198 0 0
0.5615496903895912 0 0
0.5806260872128415 0 0
0.5996992140598307 0 0
0.6187696944283109 0 0
0.6378380297091404 0 0
0.6569046255649966 0 0
0.675969809331515 0 0
0.6950338464676405 0 0
0.7140969517878768 0 0
0.7331592998278911 0 0
0.7522210321595587 0 0
0.7712822636820842 0 0
0.7903430878556268 0 0
0.8094035833471177 0 0
0.828463812492096 0 0
0.8475238243531109 0 0
0.8665836629348668 0 0
0.8856433624650336 0 0
0.9047029513429324 0 0
0.9237624539245933 0 0
0.9428218938733109 0 0
0.9618812875054565 0 0
0.9809406514501484 0 0
1 0 0
1 0 0
1 0 0
1 0 0
0.9999999999999999 0 0
1 0 0
1 0 0
1 0 0
1 0 0
1 0 0
1 0 0
1 0 0
1 0 0
1 0 0
0.9810221186239897 0 0
0.9620442514736394 0 0
0.9430664135104152 0 0
0.9240886214154075 0 0
0.9051108928369701 0 0
0.8861332479208509 0 0
0.8671557120884955 0 0
0.848178310592407 0 0
0.8292010829954399 0 0
0.8102240657000721 0 0
0.7912473098095744 0 0
0.7722708796604182 0 0
0.7532948440931705 0 0
0.7343193008227726 0 0
0.7153443531755342 0 0
0.6963701481720976 0 0
0.6773968401575041 0 0
0.6584246571423623 0 0
0.6394538188485294 0 0
0.6204846739248414 0 0
0.6015175637154859 0 0
0.5825529992819493 0 0
0.563591550986236 0 0
0.5446339178576101 0 0
0.5256809845783695 0 0
0.506733838414135 0 0
0.4877938083053265 0 0
0.4688625472977512 0 0
0.4499421326047892 0 0
0.4310349543014149 0 0
0.4121440329985148 0 0
0.3932734428720769 0 0
0.3744273557791243 0 0
0.3556118401411507 0 0
0.3368337218906085 0 0
0.318101476957305 0 0
0.2994254867494862 0 0
0.2808181945681074 0 0
0.2622947036345482 0 0
0.2438723772925801 0 0
0.2255714125500001 0 0
0.2074151175342968 0 0
0.1894277081896349 0 0
0.1716367864544981 0 0
0.1540772968852607 0 0
0.1368088963478088 0 0
0.1199163524324318 0 0
0.1035573254713718 0 0
0.08797482236247027 0 0
0.07348769489046122 0 0
0.06026822633459169 0 0
0.04852039166196263 0 0
0.03822784018874172 0 0
0.02960752026154364 0 0
0.0221970174868407 0 0
0.01579480839747534 0 0
0.01013396432855282 0 0
0.004931548762822368 0 0
0 0 0
0 0 0
0 0 0
0 0 0
0 0 0
0 0 0
0 0 0
0 0 0
0 0 0
0 0 0
0 0 0
0 0 0
0 0 0
0 0 0
0 0 0
0 0 0
0 0 0
0 0 0
0.06794851678041688 0 0
0.07765825897302342 0 0
0.1808066295714969 0 0
0.8397218653256373 0 0
0.7627826474249736 0 0
0.6868830107251636 0 0
0.6110000312966762 0 0
0.536131349722444 0 0
0.4603523832162261 0 0
0.383838029657933 0 0
0.308736846830326 0 0
0.002423799922324533 0 0
0.2438206026243001 0 0
0.8004561516172672 0 0
0.7236276260227732 0 0
0.6473720806591977 0 0
0.5710904411832746 0 0
0.4947472857011667 0 0
0.4182582157602746 0 0
0.341406898048549 0 0
0.035546144029994 0 0
0.07435504807234032 0 0
0.9819064398537912 0 0
0.04393038205120568 0 0
0.07161944165899876 0 0
0.04703940316195707 0 0
0.06871577980728422 0 0
0.8773909164031189 0 0
0.04771921669383511 0 0
0.06568691913224825 0 0
0.08554450663042115 0 0
0.08081465992025078 0 0
0.09973622764303093 0 0
0.09415114151965849 0 0
0.112269459634463 0 0
0.07707279057560636 0 0
0.03344069744001706 0 0
0.2347051298337054 0 0
0.1060942008447895 0 0
0.1237717014080378 0 0
0.8970313433808806 0 0
0.0009626191211069061 0 0
0.117028739364143 0 0
0.1345283767986609 0 0
0.003126296010580326 0 0
0.0004936539584273242 0 0
0.141572718267662 0 0
0.1521306354488053 0 0
0.1274955527195364 0 0
0.1103285004165101 0 0
0.9829551602228856 0 0
0.1597154149909112 0 0
0.1700869960010192 0 0
0.02804258370237837 0 0
0.03111597321155668 0 0
0.1779809315225175 0 0
0.188289671913475 0 0
0.120432066275132 0 0
0.1037209546407512 0 0
0.179887313829637 0 0
0.1983715350214237 0 0
0.2066564219229068 0 0
0.216685478772496 0 0
0.2251906806697889 0 0
0.2351409379826286 0 0
0.2437744455719902 0 0
0.2537057725667908 0 0
0.2622688463836937 0 0
0.2723869321928526 0 0
0.2814001731538189 0 0
0.2912016684078345 0 0
0.3002686509791052 0 0
0.3100332544396712 0 0
0.3191732469374458 0 0
0.3289024075269449 0 0
0.3380998939374124 0 0
0.3477987674356672 0 0
0.3568663259700455 0 0
0.3667003682709884 0 0
0.3758950351336057 0 0
0.3856583377186682 0 0
0.3949750227453486 0 0
0.4046330075581176 0 0
0.4139819391803802 0 0
0.4236134879796049 0 0
0.432979706451715 0 0
0.442599400412666 0 0
0.4519814277434911 0 0
0.4615914882545391 0 0
0.470986778488594 0 0
0.4805894812692459 0 0
0.4899954714880476 0 0
0.4995935370497301 0 0
0.509006912342738 0 0
0.5186001685585558 0 0
0.5280203175112227 0 0
0.5376090429701115 0 0
0.5470351268141875 0 0
0.556620562899431 0 0
0.5660512394453968 0 0
0.5756348138502904 0 0
0.5850684658446611 0 0
0.5946498855955261 0 0