<?xml version="1.0"?>
<VTKFile type="UnstructuredGrid">
  <UnstructuredGrid>
  <Piece NumberOfPoints="1224"  NumberOfCells="2290">
    <Points>
      <DataArray type="Float64" NumberOfComponents="3" format="ascii">
0 0 0
0.6 0 0
0.6 0.2 0
3 0.2 0
3 1 0
0 1 0
0.05454545454535233 0 0
0.1090909090906768 0 0
0.1636363636359771 0 0
0.2181818181812728 0 0
0.2727272727265793 0 0
0.3272727272720317 0 0
0.3818181818176247 0 0
0.4363636363632168 0 0
0.4909090909088285 0 0
0.5454545454544089 0 0
0.6 0.03999999999991203 0
0.6 0.07999999999979179 0
0.6 0.1199999999997886 0
0.6 0.1599999999998948 0
0.6510638297871261 0.2 0
0.7021276595742618 0.2 0
0.7531914893613819 0.2 0
0.8042553191485237 0.2 0
0.8553191489356438 0.2 0
0.9063829787228289 0.2 0
0.957446808509926 0.2 0
1.008510638297009 0.2 0
1.059574468084092 0.2 0
1.110638297871174 0.2 0
1.161702127658257 0.2 0
1.21276595744534 0.2 0
1.263829787232422 0.2 0
1.314893617019505 0.2 0
1.365957446806588 0.2 0
1.417021276593671 0.2 0
1.468085106380754 0.2 0
1.519148936167923 0.2 0
1.570212765955006 0.2 0
1.621276595742088 0.2 0
1.672340425529171 0.2 0
1.723404255316254 0.2 0
1.774468085103337 0.2 0
1.825531914890624 0.2 0
1.876595744677951 0.2 0
1.927659574465349 0.2 0
1.978723404252714 0.2 0
2.029787234040074 0.2 0
2.080851063827477 0.2 0
2.131914893614798 0.2 0
2.182978723402204 0.2 0
2.234042553189523 0.2 0
2.285106382976928 0.2 0
2.336170212764247 0.2 0
2.387234042551653 0.2 0
2.438297872338975 0.2 0
2.489361702126377 0.2 0
2.540425531913739 0.2 0
2.591489361701102 0.2 0
2.642553191488421 0.2 0
2.693617021275827 0.2 0
2.744680851063146 0.2 0
2.795744680850551 0.2 0
2.84680851063787 0.2 0
2.897872340425276 0.2 0
2.948936170212618 0.2 0
3 0.2533333333332341 0
3 0.3066666666664725 0
3 0.3599999999996274 0
3 0.413333333332804 0
3 0.4666666666659806 0
3 0.5199999999991571 0
3 0.5733333333323336 0
3 0.6266666666656895 0
3 0.6799999999991551 0
3 0.7333333333326146 0
3 0.7866666666660802 0
3 0.8399999999995775 0
3 0.8933333333330373 0
3 0.9466666666664969 0
2.949152542373491 1 0
2.898305084746983 1 0
2.847457627120474 1 0
2.796610169493702 1 0
2.745762711866469 1 0
2.694915254239208 1 0
2.644067796611963 1 0
2.593220338985156 1 0
2.542372881358647 1 0
2.491525423732018 1 0
2.44067796610481 1 0
2.389830508477549 1 0
2.338983050850287 1 0
2.288135593223026 1 0
2.237288135595765 1 0
2.186440677968504 1 0
2.135593220341243 1 0
2.084745762713982 1 0
2.033898305086721 1 0
1.983050847459614 1 0
1.932203389832729 1 0
1.881355932205844 1 0
1.830508474578958 1 0
1.779661016952073 1 0
1.728813559325189 1 0
1.677966101698303 1 0
1.627118644071418 1 0
1.576271186444533 1 0
1.525423728817648 1 0
1.474576271190575 1 0
1.423728813563314 1 0
1.372881355936053 1 0
1.322033898308791 1 0
1.27118644068153 1 0
1.220338983054269 1 0
1.169491525427008 1 0
1.118644067799747 1 0
1.067796610172485 1 0
1.016949152545224 1 0
0.9661016949179628 1 0
0.9152542372907018 1 0
0.8644067796634407 1 0
0.8135593220361792 1 0
0.7627118644089181 1 0
0.7118644067816566 1 0
0.661016949154396 1 0
0.6101694915271345 1 0
0.5593220338998739 1 0
0.5084745762726124 1 0
0.4576271186453518 1 0
0.4067796610180903 1 0
0.3559322033908292 1 0
0.3050847457635677 1 0
0.2542372881363066 1 0
0.2033898305090456 1 0
0.1525423728817841 1 0
0.101694915254523 1 0
0.05084745762726151 1 0
0 0.9473684210524125 0
0 0.8947368421048248 0
0 0.8421052631576025 0
0 0.7894736842105994 0
0 0.7368421052635962 0
0 0.6842105263165927 0
0 0.6315789473695894 0
0 0.5789473684225861 0
0 0.5263157894755828 0
0 0.4736842105282874 0
0 0.4210526315806998 0
0 0.3684210526331123 0
0 0.3157894736855248 0
0 0.2631578947379374 0
0 0.21052631579035 0
0 0.1578947368427625 0
0 0.1052631578951749 0
0 0.05263157894758741 0
0.4374856279758046 0.955462795473483 0
0.625531914893563 0.2394317949808221 0
0.7891616249544176 0.9557759867023439 0
2.570562443351098 0.9559758769411787 0
2.364406779663917 0.9559648099769389 0
2.161016949154874 0.9559648099769389 0
1.957627118646171 0.9559648099772646 0
1.756856606547665 0.9560078743553572 0
1.553415402058453 0.9561420672712786 0
1.347457627122422 0.95627738856474 0
1.144067796613377 0.9563034567995272 0
0.04146670856173688 0.5498854761242812 0
0.9828861012149002 0.2442383967812095 0
2.465390809289578 0.2421522008426663 0
2.259572257543314 0.243586373321511 0
2.055319178697841 0.24363095694403 0
1.851066099915384 0.2436741865527954 0
1.646810778591931 0.2437170671454607 0
1.442550972205278 0.2437587738062726 0
1.238275543433999 0.2442249255777628 0
0.5808319854219957 0.2417757800606361 0
0.6039807146029165 0.2785115072887754 0
2.951522810440164 0.5995349944823752 0
0.5591131416216563 0.2791940688436214 0
0.5817690965011905 0.3180386921514113 0
0.5363223429032008 0.3181181454258206 0
0.5590799034518541 0.3577335228902347 0
2.671507320584846 0.2416532643303031 0
0.5129751095268966 0.3576683284772433 0
0.5360042291720796 0.3976917483469583 0
0.5824744072527975 0.3977458985417416 0
0.5593202208963615 0.4382323507424581 0
0.6062221806132498 0.4382172989803606 0
0.5831398502988122 0.4790536480492864 0
0.630245509211025 0.4792447281197085 0
0.5373735766893435 0.4817209888486334 0
0.2780994584865757 0.9660670791366374 0
0.9407829849899363 0.9559852449915113 0
0.6069171020766708 0.5203953730037822 0
0.6544691944766102 0.5205851219036783 0
2.724115018794794 0.9563165682871465 0
0.04341732373162228 0.2894490564426765 0
0.6304562046384772 0.5622881188475496 0
0.6786259291441818 0.5621981517123112 0
0.03938236249337418 0.7091098825652095 0
0.2999999999993055 0.04723774929726795 0
0.7024556039582556 0.5200372393771872 0
0.726826368578132 0.562505099575485 0
0.6545296629344706 0.6041261864689124 0
0.6061411599039735 0.6041581669226386 0
2.954333097254252 0.4393531299125908 0
0.7512905139641642 0.5199435586712576 0
0.7757938242112172 0.5624873891767795 0
0.4902278874550028 0.3174350849704655 0
0.4661669324669476 0.3576870257641042 0
0.8003371868304782 0.5195844107098163 0
0.8251782158071723 0.5621174250913318 0
0.6300572939290072 0.6460588488486728 0
0.581677101888915 0.6462390077748084 0
0.7994632498085218 0.6067218912904607 0
0.850068894442807 0.6047738158182728 0
0.8747482025846163 0.5617915498272615 0
0.8998102571129438 0.6045430073239006 0
0.924588798996443 0.5614360364847856 0
0.9497125983499418 0.6046345614192383 0
0.9744389394813738 0.5613114208485291 0
0.9997656958801404 0.604758732930365 0
1.024028015453996 0.5597386087889248 0
1.050046148741532 0.6042836632406788 0
1.075213347289947 0.5607219500906248 0
1.100604808237692 0.6043040651294929 0
1.125727120818654 0.5598592244124957 0
1.151165990249003 0.6040638744783449 0
1.176319565514503 0.5595216793632644 0
1.201793840633129 0.6038781229769293 0
1.226960854257978 0.5600604284234054 0
1.252470704079807 0.6038664424080111 0
1.277198987313166 0.55874807111347 0
1.303148970446812 0.6035341865995129 0
1.328130525802366 0.5586520846649797 0
1.353966012915828 0.6034054551655909 0
1.379205474149696 0.558835304845746 0
1.404820923589671 0.6032503772964327 0
1.430092956912838 0.5587079795953892 0
1.455686300628245 0.6030926920218221 0
1.480963489515269 0.5580480170404921 0
1.506562983627252 0.6028436706904448 0
1.531847734917255 0.5577680566445021 0
1.557453558526421 0.6026435181305781 0
1.582745756648754 0.5575726351194972 0
1.608358176126191 0.6024617369905624 0
1.633656322435163 0.5573842056888257 0
1.659277805706528 0.6022873884346892 0
1.684577462424181 0.5572075399874397 0
1.710203504633815 0.6021111834258887 0
1.735506494091908 0.5570246051384745 0
1.761134606493805 0.6019307913070558 0
1.786441498808711 0.5568475628142857 0
1.812072359676459 0.6017522495250318 0
1.837381834584306 0.5566653603575672 0
1.863017119880456 0.601574020443024 0
1.888326681794851 0.5564884669211013 0
1.913963858781491 0.601395113412113 0
1.939274704592935 0.5563067813822595 0
1.964908406083961 0.6012129143420911 0
1.990224566339525 0.5561292537946573 0
2.015859329864652 0.601032757987411 0
2.041177190815608 0.5559477304122714 0
2.066818109147928 0.600855564813206 0
2.09213259478423 0.5557710179709322 0
2.117774443326183 0.6006760179252703 0
2.143088896138059 0.5555900146741853 0
2.168729305797513 0.6004921726308964 0
2.194045774061603 0.5554125217101814 0
2.219686577151481 0.6003111949874665 0
2.245003702950199 0.5552312296013228 0
2.270641766736839 0.6001298880828497 0
2.295962173634055 0.5550546947866846 0
2.321601310982481 0.599950595338254 0
2.346923922781879 0.5548708301001631 0
2.372568004594504 0.5997713467128002 0
2.397895756972162 0.5547000681173012 0
2.423546697517365 0.5996004731097838 0
2.448884659670238 0.5545095609010697 0
2.474538141419978 0.5994220729206983 0
2.499902931415869 0.5543494429014709 0
2.525546234724433 0.5993228147833797 0
2.550973655834774 0.5541346321759457 0
2.576685338327378 0.5992395038842441 0
2.602182482443039 0.5540180644105763 0
2.958944511946492 0.7598964409357507 0
2.628014314012249 0.5990918128353608 0
0.4429170888396284 0.3159793431387367 0
0.4184631156771032 0.357715436029677 0
0.3946070818022522 0.3157219358498637 0
0.3697276561976696 0.3576135465858128 0
2.449044355814981 0.643990885448769 0
2.24531935830005 0.6444881680698032 0
1.024857369602972 0.6487487015028032 0
2.041498164113345 0.6452136474256573 0
1.837701628146142 0.6459229900926835 0
0.3455853078837237 0.3150377509381005 0
0.3204780172155196 0.3574251905568473 0
0.3449438693484468 0.4002519798591844 0
1.633970683060678 0.6466170330762969 0
1.227333380683899 0.6479317947648683 0
1.430444030483603 0.6473399689389928 0
0.875196942148915 0.6483605753517908 0
0.6057010339261732 0.6883083412871458 0
0.5571396249147901 0.6885103796531055 0
2.653543252321963 0.5527758280498023 0
1.099471497978971 0.5148848291986879 0
2.602427017093663 0.6438096025956825 0
2.653851606946175 0.6437140715169269 0
1.353138019780104 0.5138574114565649 0
1.556762689169365 0.5115839513085039 0
1.760509743411542 0.5109012431757174 0
1.964341412665395 0.510388685431229 0
0.2953909602266698 0.4001745965167012 0
[...]
    <PointData>
      <DataArray type="Float64" NumberOfComponents="3" Name="Velocity" format="ascii">
3.000000034125991 0 0
0 0 0
0 0 0
3.200870769958159 0 0
3.202754490861807 0 0
3.000000000000146 0 0
3.000000034545499 0 0
2.999999600361032 0 0
3.000002400542672 0 0
2.999986663426238 0 0
3.000051849252094 0 0
3.000010156061331 0 0
2.997809716585873 0 0
3.016470606448342 0 0
3.001930578530969 0 0
2.032015031673598 0 0
0 0.008990201149865037 0
0 -0.004314131645152549 0
0 0.03683727942871203 0
0 0.1570088337289341 0
1.946556465992476 0 0
2.688866312669029 0 0
2.936650473843158 0 0
2.996106086682247 0 0
3.00200196218457 0 0
3.000190803608648 0 0
2.999864513253061 0 0
3.000009939019515 0 0
3.000007258628738 0 0
2.999997008610417 0 0
3.000000660045504 0 0
2.999999981086669 0 0
2.999999956175214 0 0
3.000000022088539 0 0
2.999999992289087 0 0
3.000000002048501 0 0
2.999999999567621 0 0
3.000000000073262 0 0
2.999999999991931 0 0
2.99999999999952 0 0
3.00000000000065 0 0
2.99999999999975 0 0
3.000000000000071 0 0
2.99999999999998 0 0
3.000000000000015 0 0
2.999999999999964 0 0
3.000000000000056 0 0
3.000000000000032 0 0
2.999999999999751 0 0
2.999999999999533 0 0
3.000000000004656 0 0
2.999999999997229 0 0
2.99999999992269 0 0
3.000000000337232 0 0
2.999999999743278 0 0
2.999999998541719 0 0
3.000000002248258 0 0
3.000000031196759 0 0
2.999999749165956 0 0
3.000001195351321 0 0
2.99999704255984 0 0
2.999992582625564 0 0
3.000094201057739 0 0
2.99966490102419 0 0
2.999272322918713 0 0
3.027899929559541 0 0
3.202655094294236 0.0006570634088644928 0
3.192472878855622 -0.0001402566174332258 0
3.193607035842231 0.0001403435347742456 0
3.193272381853176 -0.0001158531970660772 0
3.195390103595675 -0.0002138345170219512 0
3.19775302435596 -7.514029788532969e-05 0
3.195797781971446 0.0001906500325682453 0
3.195072339558152 -0.0003816579911934724 0
3.198698820318834 -3.778691602982988e-05 0
3.196379432507952 0.0001277755320627605 0
3.197714598825513 0.0001453077946479789 0
3.194313450632746 0.000172599298680911 0
3.193118016893839 -0.0007415515518318328 0
3.205074286179326 -0.000484411688938045 0
3.024061040801236 0 0
2.999431370654158 0 0
2.999675264780734 0 0
3.000066297635036 0 0
2.999995685284866 0 0
2.999997611039396 0 0
3.000000957889988 0 0
2.999999799846259 0 0
3.000000023666385 0 0
3.000000000437425 0 0
2.999999999748641 0 0
2.999999999428428 0 0
3.000000000287089 0 0
2.999999999960708 0 0
2.99999999999025 0 0
3.000000000004929 0 0
2.999999999999587 0 0
2.99999999999969 0 0
3.000000000000139 0 0
2.999999999999967 0 0
3.000000000000007 0 0
3 0 0
3 0 0
3 0 0
3 0 0
3 0 0
3.000000000000002 0 0
2.999999999999998 0 0
3.000000000000002 0 0
3.000000000000008 0 0
2.999999999999981 0 0
2.999999999999973 0 0
3.000000000000131 0 0
2.999999999999995 0 0
2.99999999999945 0 0
3.000000000000339 0 0
3.000000000001687 0 0
2.999999999998706 0 0
2.999999999995556 0 0
3.000000000003289 0 0
3.000000000013511 0 0
3.000000000002049 0 0
2.999999999979369 0 0
2.999999999972654 0 0
2.999999999977235 0 0
2.999999999980792 0 0
2.999999999986848 0 0
2.999999999987803 0 0
2.999999999997626 0 0
2.99999999999996 0 0
2.999999999997707 0 0
3.000000000000363 0 0
3.000000000001337 0 0
2.999999999999619 0 0
3.000000000000093 0 0
3.000000000000024 0 0
3.000000000000036 0 0
2.999999999999924 0 0
2.999999999999972 0 0
3.000000000000329 0 0
3.000000000000038 0 0
2.999999999989592 0 0
3.000000000020819 0 0
2.999999999934981 0 0
3.000000000119225 0 0
2.999999999889087 0 0
2.999999999411599 0 0
3.000000000751751 0 0
3.000000002571244 0 0
3.000000002198729 0 0
2.999999991635484 0 0
2.999999975126444 0 0
2.999999963258586 0 0
2.999999965917371 0 0
2.999999987929035 0 0
3.000000009771912 0 0
3.0000000000048 -7.362035091818073e-12 0
2.017618703431193 0.2790895798256032 0
3.000000000051858 3.223516617236932e-11 0
2.999999914480754 -2.127360967987148e-09 0
2.99999999971598 -1.579869369793868e-11 0
2.99999999999847 3.707616150081773e-13 0
3.00000000000001 -6.332222674900299e-15 0
3 -5.137009284860655e-16 0
3.000000000000002 2.629984467849971e-16 0
2.999999999999984 4.034691217528243e-14 0
2.99999999999799 3.16768990186046e-13 0
3.00000000027211 -1.36361088717064e-10 0
2.999954863884121 7.230021114464119e-06 0
2.999999991495627 5.381096992368794e-10 0
3.000000000039493 -2.772728685157089e-12 0
3.000000000000155 7.237322896406106e-15 0
3 3.649901543718073e-15 0
2.999999999996945 2.574471326078562e-14 0
2.999999999407284 1.4974656408635e-11 0
2.999999873180955 7.622617316822085e-09 0
2.230077428419677 0.2633736826753311 0
2.687904218938816 0.1898471914337297 0
3.036612547143815 -7.506633555475205e-05 0
2.847168029702793 0.08648972372960667 0
2.952615997915256 0.04448988372751594 0
2.98962991229515 0.009309303184936025 0
2.998931132699563 0.0027120909903605 0
3.000000773062593 -1.394244017360507e-07 0
3.001136691056012 -0.0005143551062678247 0
3.000533263542848 -0.0005074134292747261 0
3.000888016551734 -0.0006638953489045139 0
3.00006637817925 -0.0001698564297878554 0
3.000236410705362 -0.0004912804998967969 0
2.999966798406132 3.308716093661618e-05 0
2.999979501273409 2.306286025151883e-06 0
2.999972772589206 3.440722285740635e-05 0
3.000000000000855 -1.456543353885994e-12 0
2.99999999998307 -2.608461686751338e-12 0
2.99999233469022 2.700291582874574e-05 0
2.999995730341287 3.731235431403551e-05 0
2.999992754282534 -3.820650715807092e-07 0
3.000000003374384 -3.47383166023393e-10 0
3.000000961949528 -2.981549130058918e-06 0
3.000000599157763 -2.394771919270245e-06 0
2.999999999985288 1.04609770634854e-11 0
3.000151051857864 -5.017965883234091e-06 0
3.00000291320454 3.333187900475901e-05 0
2.999999971611051 -4.421312307881613e-06 0
2.999999903491926 -2.018464786493608e-06 0
3.000000131281403 -1.288791770503049e-06 0
3.045626160809491 -0.0001351873672572366 0
3.000008359009485 1.734648032874277e-05 0
2.999998776938873 -4.475902242733079e-06 0
3.00215331636252 -0.0007776056678569742 0
3.000204723817656 -0.0001827095705290748 0
3.000006794522952 1.598638837171726e-06 0
2.999998110193924 -2.065898060457291e-06 0
2.999999995210485 5.409168803673342e-07 0
2.999999928288029 4.634458847653637e-07 0
2.999999949918994 5.636835017740505e-07 0
3.000000326513695 5.714864187150044e-07 0
2.999999064525038 2.341038390364407e-07 0
3.000000326829436 1.462248683808014e-07 0
3.000000294269801 7.73704841350062e-07 0
3.000000022756753 -1.420905794966084e-07 0
3.000000361168276 3.718676330689878e-08 0
2.999999903610382 -5.031147102452853e-08 0
3.00000004311025 -2.05065676841123e-07 0
2.999999970208797 4.435632415759539e-08 0
2.999999905978746 7.625484556569912e-09 0
3.000000019114482 1.053704894186818e-08 0
2.999999973004524 4.439091310644095e-08 0
3.000000010716785 -1.358928686222033e-08 0
3.000000026235779 -1.143716742916361e-08 0
2.999999993358281 1.882997389332106e-09 0
3.000000000453915 -3.298659289663954e-09 0
2.999999999689833 1.311096874890749e-09 0
2.999999995287005 2.5751967583017e-09 0
3.000000001207662 -7.731791685875775e-10 0
3.000000002128289 -8.028207215799195e-10 0
2.999999999469547 2.143718376104021e-10 0
2.999999999516015 1.450296610998866e-10 0
3.000000000100771 -2.591471449209829e-11 0
3.000000000055996 -1.578436479039184e-11 0
3.000000000008842 -5.230354343338624e-12 0
3.000000000002553 8.719144954358535e-13 0
2.999999999986282 3.972694854622434e-12 0
2.999999999997575 -1.991866824776251e-13 0
3.000000000005819 -1.343060057719879e-12 0
3.000000000000343 1.730412729457893e-13 0
2.999999999998254 3.387911167240369e-13 0
3.000000000000074 -8.314330935293011e-14 0
3.000000000000444 -7.277839675518761e-14 0
2.999999999999933 3.004896941022125e-14 0
2.999999999999896 1.504492510959384e-14 0
3.00000000000003 -9.833819763740855e-15 0
3.000000000000026 -2.150240417764791e-15 0
2.999999999999988 2.78961341972568e-15 0
2.999999999999993 5.279116466880021e-16 0
3.000000000000001 -7.426062531906701e-16 0
3 -1.080733692622e-15 0
3.000000000000004 -4.642591468303236e-16 0
2.999999999999998 4.934967739826479e-15 0
2.99999999999999 3.631719654505645e-15 0
3.000000000000015 -1.695041935739169e-14 0
2.999999999999991 -1.111255063436482e-14 0
2.999999999999963 3.545039759043133e-14 0
3.000000000000129 2.155024061514835e-14 0
2.999999999999916 -3.793824831912403e-14 0
2.999999999999799 -2.970366159328225e-14 0
3.000000000000441 -3.10377667390592e-14 0
2.999999999999253 2.906554193014412e-14 0
3.00000000000093 2.219194653152071e-13 0
3.000000000002832 -3.980831930719895e-14 0
2.999999999987989 -4.295708090538917e-13 0
3.000000000008718 2.040655958412429e-13 0
3.000000000031485 3.716104848786689e-13 0
2.999999999915695 -1.257273249615255e-12 0
3.00000000005668 -2.111094848029887e-13 0
3.00000000018145 7.231393452353706e-12 0
2.999999999382787 8.779228224935017e-13 0
3.00000000038124 -3.614716741307517e-11 0
3.000000001809532 -2.834672489556911e-12 0
2.99999999708774 1.59569858243473e-10 0
2.99999999566852 1.270321192662788e-11 0
3.000000010726346 -5.24098489159693e-10 0
3.000000016875632 -5.852164320462994e-11 0
2.999999972012059 -3.294580977167262e-12 0
2.999999916854654 1.44567688905809e-10 0
2.999999980163677 1.262619075657169e-08 0
3.054575100595814 0.0001078216527892589 0
3.00000044257048 2.859324470247773e-09 0
3.000257264056982 -0.0001810652962545408 0
2.999908709098023 3.167123865911187e-05 0
2.999863507784109 3.739018238014744e-05 0
2.99999895249575 5.262829856895302e-06 0
2.999999997158361 -9.854040661055349e-11 0
3.000000000009675 4.81949412381713e-13 0
3.000000026367146 1.856110004487436e-08 0
2.999999999999988 -9.93521176518854e-14 0
3.000000000000005 5.039444751421331e-16 0
3.000008432425048 1.079166127667575e-06 0
3.000005451319341 -1.909263089606646e-06 0
3.000005699761558 -2.607275173815266e-06 0
3.000000000000894 -2.213430890594224e-13 0
3.000000001708754 -5.133902151445751e-10 0
2.999999999975911 5.253718928003869e-12 0
2.999999979648108 -1.066412283382275e-07 0
2.999999993516304 -3.049880945019956e-08 0
3.000000012135815 -8.426665287437727e-08 0
3.000000648347974 -6.543666705895363e-08 0
2.999999994022683 -1.014811789553813e-07 0
3.00000000758859 -1.20677020033723e-08 0
3.000000563827412 5.241394387521847e-08 0
3.0000000021376 -6.626760094859339e-10 0
3.000000000012764 -2.863448147294316e-12 0
3.000000000000074 -1.031575769989113e-14 0
3.000000000000038 1.663820894057557e-14 0
2.999999232505576 -4.487642944235443e-10 0
2.999998856009595 2.824145125673372e-07 0
3.000000000000489 -5.941489507209171e-14 0
2.999999999391175 6.596499031871447e-12 0
2.999999869658329 5.854198586946351e-09 0
2.999987569146775 3.985218223770194e-05 0
2.999998856838547 7.902552250241744e-07 0
3.000000589737494 1.042396378352911e-08 0
2.999998608962502 7.476163385100861e-08 0
3.00000000440959 -1.560892102676619e-08 0
2.999999999015455 -3.505914730681412e-08 0
2.999999998653863 8.020216369764579e-09 0
3.00000002447702 -5.263444024513058e-08 0
2.999999993413625 1.087596518884309e-08 0
2.999999999797519 -5.650264966511709e-09 0
2.999999998982732 2.858776743120163e-09 0
2.999999988479726 1.046014834691235e-08 0
3.000000002620316 -2.298992457442919e-09 0
3.000000000389829 1.818894818000576e-09 0
2.999999999485372 -1.453204107774082e-10 0
3.000000003067778 -2.462288824597435e-09 0
1.303159321453591 0.05355709300896416 0
3.000090645933565 -5.031209717544904e-05 0
2.999999999548403 4.949451897244315e-10 0
3.000004076148729 -8.20474356446164e-07 0
2.999974359563686 -1.611736332999767e-05 0
2.999999814173259 1.481199254148604e-07 0
3.002953936038015 4.200139520358374e-05 0
2.999999998531532 6.444714923291343e-10 0
3.000000876419061 1.367256678401321e-09 0
2.999999964526524 -2.812065083288336e-10 0
2.99999462610565 -4.059359404625499e-09 0
2.999996702292147 -4.11975045060853e-07 0
2.882467433954477 0.04356695843057537 0
2.99999999869211 6.359014713507491e-09 0
2.999999449347569 6.81552392331979e-08 0
2.999999997518517 4.00342713251272e-10 0
3.00000001667091 -3.99957323906024e-09 0
3.000010920067442 -1.560780742037674e-06 0
2.999999293237243 6.666437917117556e-07 0
3.000000000003339 1.330317726531086e-13 0
3.000000000041695 1.762154207045553e-11 0
2.999999999998431 -3.477426319843724e-13 0
2.999999999999988 1.00995264814688e-15 0
3.000000000000065 -1.306148076880226e-14 0
3.000000000006191 -2.196726033529313e-12 0
2.999999999999242 -2.486332040912759e-13 0
3.000000000000038 1.230280048308497e-14 0
2.999999999384412 1.927486829510291e-11 0
2.99999999994411 8.469553189380095e-13 0
2.999999999999913 6.118300868234992e-16 0
2.999997488642566 1.794989782534381e-07 0
2.999999993889243 3.045216082178956e-10 0
2.999999999757841 2.037652557969733e-10 0
2.999999999999853 8.485622075997946e-14 0
2.999999999999988 -7.44572114590756e-15 0
2.99999999320794 -4.155657539854745e-10 0
3.000000000006068 9.313462205040176e-16 0
3.000000000000386 -1.412290023321144e-13 0
3.000000000040576 1.017609784714543e-12 0
3.000000000000001 -9.146390571962169e-17 0
3.000000000000003 -4.60202915323415e-15 0
3.000000000000082 8.551865557907004e-14 0
2.999999994226769 -3.241543508672057e-09 0
3.000000000000028 3.010058130187031e-14 0
3.000000000000004 1.538323400391495e-15 0
3.00000000000102 -1.830991320173517e-13 0
3.000000000134829 -3.726683967403009e-11 0
3.000000000235704 -1.046125625033316e-12 0
3.000000000018259 8.138485797752166e-13 0
3.000000012868059 2.695536236591458e-10 0
2.999999874811246 1.666138555743384e-09 0
2.999999990140743 -3.251367090452179e-11 0
2.999987645592119 4.383945615651145e-06 0
3.00089967074025 9.743479151610478e-05 0
2.999999995934453 1.571831703609651e-10 0
2.999999775386729 1.441518819919551e-07 0
2.999999999463396 5.747560445044525e-10 0
3.000707304920067 -0.000271135199073045 0
3.000000137549639 -4.833701342239735e-08 0
3.000000000351817 -2.319029074491244e-10 0
3.000000005081018 -1.628335978192727e-09 0
3.000000000540864 -1.365479984305846e-09 0
3.000017861795885 -8.514074923797999e-08 0
3.000000591367575 -1.816741367309855e-08 0
2.999999861429454 7.474413393660265e-09 0
3.000000001537675 -2.329492611614938e-09 0
3.000000000022594 2.102171357917026e-11 0
3.000000044472854 -3.789999481513177e-08 0
3.000051212258205 -7.375909569207561e-07 0
2.999999999970722 -3.97691568185402e-11 0
3.000003993463148 -2.652592927513461e-06 0
3.000011165490254 -2.805827066256317e-06 0
2.999993723582043 1.500242310238786e-06 0
2.99999986515541 -7.405128246505645e-08 0
2.999996643754947 4.395365801540769e-07 0
3.000049831326125 6.031383016997361e-07 0
3.046870992140279 0.0003672686322319938 0
3.033725862591051 -0.0004391532743664775 0
2.999998935857444 4.946284409034645e-07 0
2.999999999964276 4.769754996970761e-11 0
3.000009287392027 2.90606708968367e-05 0
2.999923141575534 -6.034992208410269e-05 0
2.999968110190527 5.223815927821925e-05 0
3.000022606081751 -7.557480269624004e-07 0
3.00000008880406 5.540792326939185e-07 0
2.767105046274609 0.07408154278052227 0
3.000000834092685 -1.22921056943304e-06 0
3.000000130139382 -4.080679095790376e-08 0
2.999999967479739 4.397934588223891e-09 0
2.999999967734785 7.16951884233002e-09 0
3.000001490728902 -2.47151915068008e-07 0
3.000000000025501 -1.09390648153322e-11 0
2.999933817941842 -0.0002707071851581935 0
2.999883323245144 5.080598822439983e-05 0
3.000349660168657 -0.0005705992382432612 0
2.99999435404361 5.400014490068642e-06 0
3.000048973011762 -3.787618379047684e-07 0
2.999999999995826 -4.150321882231197e-12 0
2.99999999985161 4.61559439050619e-11 0
2.999999991577081 9.3998483358021e-09 0
2.999999972415166 -1.239117880169769e-10 0
3.000000028247265 -1.733137980031185e-09 0
3.000000010095575 -3.811890556021107e-10 0
2.999999993483327 3.100296922438456e-10 0
2.999999997744429 1.32321639848661e-10 0
3.000000002225687 -5.782129075048864e-11 0
2.999999999944506 -3.87402433914086e-11 0
2.999999999350465 1.651006911758933e-11 0
3.000000000267916 7.332110191450207e-12 0
3.000000000052348 -5.682539603397954e-12 0
2.999999999919943 2.093487381333292e-12 0
3.000000000033759 3.834120172987221e-13 0
3.000000000002881 -1.592386463549921e-12 0
2.999999999985114 8.003200673360551e-13 0
3.000000000005483 1.893131675172068e-13 0
3.00000000000293 -5.392820040432193e-13 0
2.999999999997724 2.001004875463749e-13 0
2.999999999999782 2.488589842588995e-13 0
3.000000000000548 -1.570436476376487e-13 0
2.99999999999994 -1.068825013548723e-13 0
2.999999999999898 8.140020940733299e-14 0
3.000000000000044 3.811148198174085e-14 0
3.000000000000014 -3.948280369548346e-14 0
2.999999999999978 -5.87887713093324e-15 0
3 1.751912513777557e-14 0
3.00000000000001 -3.923380157630444e-15 0
3 -6.492599683060749e-15 0
2.999999999999997 4.612566576596551e-15 0
3 1.698157453039645e-15 0
3 -2.207837199347017e-15 0
3 2.058422415381539e-16 0
3.000000000000006 -9.204418503642933e-16 0
3.000000000000004 -1.852313477442812e-15 0
2.99999999999998 6.921465164092101e-15 0
2.99999999999999 5.531112500458089e-15 0
3.000000000000051 -2.30074232354577e-14 0
3.000000000000008 -1.007647622675514e-14 0
2.999999999999932 4.908930879901931e-14 0
3.000000000000035 -2.793309528490822e-15 0
2.999999999999932 -2.874032100977708e-14 0
2.999999999999865 7.176514710209144e-14 0
3.000000000000578 -2.395758829209276e-13 0
3.0000000000001 -2.126032347929759e-13 0
2.999999999998981 1.014627887475257e-12 0
3.000000000000565 1.756967144747963e-13 0
2.999999999998879 -1.628874622185745e-12 0
2.999999999998439 7.61930500399619e-13 0
3.000000000007943 -1.630534078414502e-12 0
2.999999999998964 -2.528082921994183e-12 0
2.99999999999404 1.281718072170224e-11 0
3.000000000010929 6.489341545357665e-13 0
2.999999999960007 -1.602033501060649e-11 0
2.999999999993795 1.084466940109782e-11 0
3.000000000076137 -3.855321020793454e-11 0
2.999999999947778 -1.35416435599676e-11 0
3.000000000148026 1.108750651249171e-10 0
3.000000000073811 -3.000758555205953e-11 0
2.999999999511563 4.656578260263837e-11 0
3.00000000015353 7.327242692284287e-11 0
2.999999999707037 -4.332349584649697e-10 0
2.999999999718252 2.012233805370989e-11 0
3.00000000154406 3.164162824486851e-10 0
2.999999999704474 -2.72872593139156e-10 0
3.000000000125108 1.170944787365654e-09 0
3.000000000826324 1.824661200494184e-10 0
2.99999999601769 -2.032787758174283e-09 0
3.000000001013485 9.982438095019399e-10 0
2.999999997276335 -4.291149226349564e-09 0
2.999999999275082 -9.425938556269571e-11 0
3.000000002725009 9.696975572885298e-10 0
2.999999997861563 -2.523689489457406e-09 0
3.000020066075922 1.501449555530346e-07 0
3.000001436552815 -3.337642076889064e-06 0
2.999999996743386 5.403577988709655e-09 0
3.000000006163915 -3.335416207723519e-09 0
3.000002081961624 -1.147462952811478e-06 0
3.000090660594827 -1.630932854742684e-05 0
2.999772484390983 6.629281756441361e-06 0
3.000000005589312 9.219138866347867e-09 0
2.999999997956129 -3.215029852819666e-09 0
3.000000000141831 6.42282236954122e-09 0
3.000000229872516 -5.295989477585209e-08 0
2.999631278971254 4.90312992865278e-07 0
3.000004224298898 -6.274872149399464e-06 0
2.999208461758576 -2.129933468884356e-05 0
2.999786192904697 7.775972151153774e-08 0
3.000052960229393 1.944450701712654e-07 0
3.00001812684376 2.634869519784184e-06 0
3.000018066456177 -5.632088860980391e-07 0
3.000057166129546 -1.084845524783564e-06 0
2.999996625694397 -8.118088920731071e-07 0
3.000028762643757 -2.546824302060578e-07 0
2.999995665215123 2.578305208467283e-08 0
2.999971895989635 4.819066516384342e-07 0
2.999998458688577 1.115629772469416e-07 0
3.000000410845274 1.719145104326603e-08 0
2.999999523516649 3.86006045874787e-07 0
2.999999346092283 8.414696076301884e-08 0
3.00000000321758 1.265865657290292e-09 0
3.000000000023708 -1.043490167238995e-10 0
2.999999785196119 5.36046895907426e-09 0
2.999999999999976 2.598087698682389e-14 0
2.593804905567112 -0.004512074206639136 0
3.000000568686123 1.159420066451834e-08 0
3.000000038832412 -4.222158222663774e-09 0
2.9999998838463 -7.61461322026013e-09 0
2.999999963714702 2.807104107399233e-10 0
3.000000020913446 1.649044382805722e-09 0
3.000000011974867 1.432736560586305e-10 0
2.999999995721099 -3.141609199994551e-10 0