<?xml version="1.0"?>
<VTKFile type="UnstructuredGrid">
  <UnstructuredGrid>
  <Piece NumberOfPoints="1224"  NumberOfCells="2290">
    <Points>
      <DataArray type="Float64" NumberOfComponents="3" format="ascii">
0 0 0
0.6 0 0
0.6 0.2 0
85 0.2 0
85 1 0
0 1 0
0.05454545454535233 0 0
0.1090909090906768 0 0
0.1636363636359771 0 0
0.2181818181812728 0 0
0.2727272727265793 0 0
0.3272727272720317 0 0
0.3818181818176247 0 0
0.4363636363632168 0 0
0.4909090909088285 0 0
0.5454545454544089 0 0
0.6 0.03999999999991203 0
0.6 0.07999999999979179 0
0.6 0.1199999999997886 0
0.6 0.1599999999998948 0
8.072067635916293 0.2 0
10.42337140249547 0.2 0
12.41157546347498 0.2 0
14.28061866158883 0.2 0
16.07717137991305 0.2 0
17.8284048929903 0.2 0
19.54727807743026 0.2 0
21.24385656830163 0.2 0
22.92441273195469 0.2 0
24.59314670112284 0.2 0
26.25301534477218 0.2 0
27.90613952949483 0.2 0
29.5540797105892 0.2 0
31.19801948885824 0.2 0
32.83882356866692 0.2 0
34.47715268802351 0.2 0
36.11352529842908 0.2 0
37.74834382408735 0.2 0
39.38192302485914 0.2 0
41.01451045429189 0.2 0
42.64630226407423 0.2 0
44.27745417630464 0.2 0
45.90809047053891 0.2 0
47.53831051405634 0.2 0
49.1681940756864 0.2 0
50.79780525694045 0.2 0
52.42719572488198 0.2 0
54.05640715034779 0.2 0
55.6854732201966 0.2 0
57.31442119576204 0.2 0
58.94327317720431 0.2 0
60.5720470990771 0.2 0
62.20075752628306 0.2 0
63.82941629910987 0.2 0
65.45803302347453 0.2 0
67.08661553070235 0.2 0
68.71517039344944 0.2 0
70.34370284063037 0.2 0
71.97221699894222 0.2 0
73.60071656125182 0.2 0
75.229204403319 0.2 0
76.85768291694512 0.2 0
78.48615415534216 0.2 0
80.11462009971949 0.2 0
81.74308214448871 0.2 0
83.37154170554285 0.2 0
85 0.2533333333332341 0
85 0.3066666666664725 0
85 0.3599999999996274 0
85 0.413333333332804 0
85 0.4666666666659806 0
85 0.5199999999991571 0
85 0.5733333333323336 0
85 0.6266666666656895 0
85 0.6799999999991551 0
85 0.7333333333326146 0
85 0.7866666666660802 0
85 0.8399999999995775 0
85 0.8933333333330373 0
85 0.9466666666664969 0
83.37850237933293 1 0
81.75700602404049 1 0
80.13551221052191 1 0
78.51402237056446 1 0
76.89253802501716 1 0
75.2710609184265 1 0
73.64959325863886 1 0
72.02813722405506 1 0
70.4066962659199 1 0
68.78527353593118 1 0
67.16387347590629 1 0
65.54250170101881 1 0
63.92116418702074 1 0
62.29986948042897 1 0
60.6786265597277 1 0
59.05744831129078 1 0
57.43634818247029 1 0
55.81534618954273 1 0
54.19446140793961 1 0
52.57372464187413 1 0
50.95316560950331 1 0
49.33282948166075 1 0
47.71276634316994 1 0
46.0930377727292 1 0
44.47372177141535 1 0
42.85491456329054 1 0
41.23673354959393 1 0
39.61932552282017 1 0
38.00287509038718 1 0
36.38759464920172 1 0
34.77375346424568 1 0
33.16171516652434 1 0
31.55185164974176 1 0
29.94471285912863 1 0
28.34091340287303 1 0
26.74122021127623 1 0
25.14657593423582 1 0
23.55810913889151 1 0
21.97721583726435 1 0
20.40552787458631 1 0
18.8449965902236 1 0
17.29793391220916 1 0
15.76662868664529 1 0
14.25336692010218 1 0
12.76039650344978 1 0
11.29094623252589 1 0
9.849400112351738 1 0
8.444970013285138 1 0
7.093698676664631 1 0
5.820826388956587 1 0
4.642971464838363 1 0
3.58392171363402 1 0
2.654060078400438 1 0
1.909913564408974 1 0
1.31352240459232 1 0
0.8558227957727964 1 0
0.5101986355657365 1 0
0.2332599578293471 1 0
0 0.9473684210524125 0
0 0.8947368421048248 0
0 0.8421052631576025 0
0 0.7894736842105994 0
0 0.7368421052635962 0
0 0.6842105263165927 0
0 0.6315789473695894 0
0 0.5789473684225861 0
0 0.5263157894755828 0
0 0.4736842105282874 0
0 0.4210526315806998 0
0 0.3684210526331123 0
0 0.3157894736855248 0
0 0.2631578947379374 0
0 0.21052631579035 0
0 0.1578947368427625 0
0 0.1052631578951749 0
0 0.05263157894758741 0
5.331166912421956 0.955462795473483 0
6.405208422605154 0.2394317949808221 0
15.03316351264249 0.9557759867023439 0
71.30560664431943 0.9559758769411787 0
64.73181454429334 0.9559648099769389 0
58.2468567317766 0.9559648099769389 0
51.76335165983688 0.9559648099772646 0
45.36658700988493 0.9560078743553572 0
38.89226224190053 0.9561420672712786 0
32.35571392415375 0.95627738856474 0
25.94158856838672 0.9563034567995272 0
0.1108694171288698 0.5498854761242812 0
20.40067414813891 0.2442383967812095 0
67.95068951009686 0.2421522008426663 0
61.38635947240835 0.243586373321511 0
54.87100415285666 0.24363095694403 0
48.35346935144807 0.2436741865527954 0
41.83081585508414 0.2437170671454607 0
35.29607713508545 0.2437587738062726 0
28.73147260343906 0.2442249255777628 0
3.226806457206971 0.2417757800606361 0
6.138547947102576 0.2785115072887754 0
83.45406005479531 0.5995349944823752 0
3.818503447336226 0.2791940688436214 0
5.912603527003342 0.3180386921514113 0
4.011468939401214 0.3181181454258206 0
5.667279648220759 0.3577335228902347 0
74.52410365637806 0.2416532643303031 0
4.016912635709847 0.3576683284772433 0
5.404150206945696 0.3976917483469583 0
7.009337094961231 0.3977458985417416 0
6.612645204755622 0.4382323507424581 0
8.17152698483601 0.4382172989803606 0
7.703784893890041 0.4790536480492864 0
9.216832617458465 0.4792447281197085 0
6.288934300550911 0.4817209888486334 0
2.237694987323687 0.9660670791366374 0
19.62370664047177 0.9559852449915113 0
8.697483167255042 0.5203953730037822 0
10.18600710516535 0.5205851219036783 0
76.2022097583495 0.9563165682871465 0
0.04827230970876202 0.2894490564426765 0
9.61668695235335 0.5622881188475496 0
11.09711049686287 0.5621981517123112 0
0.1445971520350138 0.7091098825652095 0
0.2660726705076682 0.04723774929726795 0
11.6930322541463 0.5200372393771872 0
12.59079484651343 0.562505099575485 0
10.50177515409733 0.6041261864689124 0
9.048731942885698 0.6041581669226386 0
83.54366424156008 0.4393531299125908 0
13.23429577320397 0.5199435586712576 0
14.1175280788487 0.5624873891767795 0
2.518875854510599 0.3174350849704655 0
2.681407604976182 0.3576870257641042 0
14.78869307742142 0.5195844107098163 0
15.66707010638875 0.5621174250913318 0
9.902526172092623 0.6460588488486728 0
8.485278083229739 0.6462390077748084 0
14.95222771793883 0.6067218912904607 0
16.52616167973575 0.6047738158182728 0
17.23182437467117 0.5617915498272615 0
18.08682091154389 0.6045430073239006 0
18.81185596966321 0.5614360364847856 0
19.66050759627484 0.6046345614192383 0
20.39689977867272 0.5613114208485291 0
21.24423065523086 0.604758732930365 0
21.97490358073254 0.5597386087889248 0
22.83843217336832 0.6042836632406788 0
23.60774928363328 0.5607219500906248 0
24.44445929052457 0.6043040651294929 0
25.21854084414215 0.5598592244124957 0
26.05227062155913 0.6040638744783449 0
26.8327303996882 0.5595216793632644 0
27.66356426790494 0.6038781229769293 0
28.44904398424933 0.5600604284234054 0
29.27739182579804 0.6038664424080111 0
30.05185948886244 0.55874807111347 0
30.89183144930863 0.6035341865995129 0
31.67722109277532 0.5586520846649797 0
32.51120930079139 0.6034054551655909 0
33.30707024487397 0.558835304845746 0
34.13210771287667 0.6032503772964327 0
34.93076197477912 0.5587079795953892 0
35.75357585862 0.6030926920218221 0
36.55373652437165 0.5580480170404921 0
37.37556447363771 0.6028436706904448 0
38.1770989030576 0.5577680566445021 0
38.99812452832391 0.6026435181305781 0
39.8008098323127 0.5575726351194972 0
40.62122293815673 0.6024617369905624 0
41.42483628317337 0.5573842056888257 0
42.24486566726342 0.6022873884346892 0
43.04912070928386 0.5572075399874397 0
43.86874882654672 0.6021111834258887 0
44.67359091544527 0.5570246051384745 0
45.49283940321138 0.6019307913070558 0
46.29819501875875 0.5568475628142857 0
47.11716826102629 0.6017522495250318 0
47.92292129830408 0.5566653603575672 0
48.74173996988215 0.601574020443024 0
49.54775113261521 0.5564884669211013 0
50.36638921847489 0.601395113412113 0
51.17264864226501 0.5563067813822595 0
51.99097958154556 0.6012129143420911 0
52.79757684242011 0.5561292537946573 0
53.61578151104698 0.601032757987411 0
54.4225698210233 0.5559477304122714 0
55.24084024233947 0.600855564813206 0
56.04763211830393 0.5557710179709322 0
56.8658256627926 0.6006760179252703 0
57.67270698517548 0.5555900146741853 0
58.4907676595198 0.6004921726308964 0
59.29778697495265 0.5554125217101814 0
60.11578921690635 0.6003111949874665 0
60.92288954759368 0.5552312296013228 0
61.74074644989125 0.6001298880828497 0
62.54800038995026 0.5550546947866846 0
63.36584412843155 0.599950595338254 0
64.17320833099441 0.5548708301001631 0
64.99117100079184 0.5997713467128002 0
65.79873178657074 0.5547000681173012 0
66.6168814689464 0.5996004731097838 0
67.42479450038145 0.5545095609010697 0
68.24299921536698 0.5994220729206983 0
69.05178973585446 0.5543494429014709 0
69.86964856534975 0.5993228147833797 0
70.68045422928481 0.5541346321759457 0
71.50047623038472 0.5992395038842441 0
72.31352023163866 0.5540180644105763 0
83.6907529065215 0.7598964409357507 0
73.13735907513946 0.5990918128353608 0
1.598536748924218 0.3159793431387367 0
1.779755767898983 0.357715436029677 0
1.038318802477792 0.3157219358498637 0
1.176094877995865 0.3576135465858128 0
67.43011542907901 0.643990885448769 0
60.93347253409851 0.6444881680698032 0
22.0749784103904 0.6487487015028032 0
54.43397290322737 0.6452136474256573 0
47.93576273172989 0.6459229900926835 0
0.6868499781768258 0.3150377509381005 0
0.7844584465884747 0.3574251905568473 0
1.251746823321979 0.4002519798591844 0
41.44087863306878 0.6466170330762969 0
28.49233060294459 0.6479317947648683 0
34.9556732709346 0.6473399689389928 0
17.37662229061038 0.6483605753517908 0
9.313186577228388 0.6883083412871458 0
7.927117839039474 0.6885103796531055 0
73.95142825674681 0.5527758280498023 0
24.35267011070668 0.5148848291986879 0
72.32143932801344 0.6438096025956825 0
73.96135931840088 0.6437140715169269 0
32.46575856059611 0.5138574114565649 0
38.96775680400759 0.5115839513085039 0
45.46927822087367 0.5109012431757174 0
51.97130377941534 0.510388685431229 0
0.8388470296563489 0.4001745965167012 0
1.272623948599238 0.4433206937839571 0
58.47353865794019 0.5096846626216972 0
64.97642417503701 0.5089830538848221 0
[...]
    <PointData>
      <DataArray type="Float64" NumberOfComponents="3" Name="Velocity" format="ascii">
-nan -nan 0
-nan -nan 0
-nan -nan 0
-nan -nan 0
-nan -nan 0
-nan -nan 0
-nan -nan 0
-nan -nan 0
-nan -nan 0
-nan -nan 0
-nan -nan 0
-nan -nan 0
-nan -nan 0
-nan -nan 0
-nan -nan 0
-nan -nan 0
-nan -nan 0
-nan -nan 0
-nan -nan 0
-nan -nan 0
-nan -nan 0
-nan -nan 0
-nan -nan 0
-nan -nan 0
-nan -nan 0
-nan -nan 0
-nan -nan 0
-nan -nan 0
-nan -nan 0
-nan -nan 0
-nan -nan 0
-nan -nan 0
-nan -nan 0
-nan -nan 0
-nan -nan 0
-nan -nan 0
-nan -nan 0
-nan -nan 0
-nan -nan 0
-nan -nan 0
-nan -nan 0
-nan -nan 0
-nan -nan 0
-nan -nan 0
-nan -nan 0
-nan -nan 0
-nan -nan 0
-nan -nan 0
-nan -nan 0
-nan -nan 0
-nan -nan 0
-nan -nan 0
-nan -nan 0
-nan -nan 0
-nan -nan 0
-nan -nan 0
-nan -nan 0
-nan -nan 0
-nan -nan 0
-nan -nan 0
-nan -nan 0
-nan -nan 0
-nan -nan 0
-nan -nan 0
-nan -nan 0
-nan -nan 0
-nan -nan 0
-nan -nan 0
-nan -nan 0
-nan -nan 0
-nan -nan 0
-nan -nan 0
-nan -nan 0
-nan -nan 0
-nan -nan 0
-nan -nan 0
-nan -nan 0
-nan -nan 0
-nan -nan 0
-nan -nan 0
-nan -nan 0
-nan -nan 0
-nan -nan 0
-nan -nan 0
-nan -nan 0
-nan -nan 0
-nan -nan 0
-nan -nan 0
-nan -nan 0
-nan -nan 0
-nan -nan 0
-nan -nan 0
-nan -nan 0
-nan -nan 0
-nan -nan 0
-nan -nan 0
-nan -nan 0
-nan -nan 0
-nan -nan 0
-nan -nan 0
-nan -nan 0
-nan -nan 0
-nan -nan 0
-nan -nan 0
-nan -nan 0
-nan -nan 0
-nan -nan 0
-nan -nan 0
-nan -nan 0
-nan -nan 0
-nan -nan 0
-nan -nan 0
-nan -nan 0
-nan -nan 0
-nan -nan 0
-nan -nan 0
-nan -nan 0
-nan -nan 0
-nan -nan 0
-nan -nan 0
-nan -nan 0
-nan -nan 0
-nan -nan 0
-nan -nan 0
-nan -nan 0
-nan -nan 0
-nan -nan 0
-nan -nan 0
-nan -nan 0
-nan -nan 0
-nan -nan 0
-nan -nan 0
-nan -nan 0
-nan -nan 0
-nan -nan 0
-nan -nan 0
-nan -nan 0
-nan -nan 0
-nan -nan 0
-nan -nan 0
-nan -nan 0
-nan -nan 0
-nan -nan 0
-nan -nan 0
-nan -nan 0
-nan -nan 0
-nan -nan 0
-nan -nan 0
-nan -nan 0
-nan -nan 0
-nan -nan 0
-nan -nan 0
-nan -nan 0
-nan -nan 0
-nan -nan 0
-nan -nan 0
-nan -nan 0
-nan -nan 0
-nan -nan 0
-nan -nan 0
-nan -nan 0
-nan -nan 0
-nan -nan 0
-nan -nan 0
-nan -nan 0
-nan -nan 0
-nan -nan 0
-nan -nan 0
-nan -nan 0
-nan -nan 0
-nan -nan 0
-nan -nan 0
-nan -nan 0
-nan -nan 0
-nan -nan 0
-nan -nan 0
-nan -nan 0
-nan -nan 0
-nan -nan 0
-nan -nan 0
-nan -nan 0
-nan -nan 0
-nan -nan 0
-nan -nan 0
-nan -nan 0
-nan -nan 0
-nan -nan 0
-nan -nan 0
-nan -nan 0
-nan -nan 0
-nan -nan 0
-nan -nan 0
-nan -nan 0
-nan -nan 0
-nan -nan 0
-nan -nan 0
-nan -nan 0
-nan -nan 0
-nan -nan 0
-nan -nan 0
-nan -nan 0
-nan -nan 0
-nan -nan 0
-nan -nan 0
-nan -nan 0
-nan -nan 0
-nan -nan 0
-nan -nan 0
-nan -nan 0
-nan -nan 0
-nan -nan 0
-nan -nan 0
-nan -nan 0
-nan -nan 0
-nan -nan 0
-nan -nan 0
-nan -nan 0
-nan -nan 0
-nan -nan 0
-nan -nan 0
-nan -nan 0
-nan -nan 0
-nan -nan 0
-nan -nan 0
-nan -nan 0
-nan -nan 0
-nan -nan 0
-nan -nan 0
-nan -nan 0
-nan -nan 0
-nan -nan 0
-nan -nan 0
-nan -nan 0
-nan -nan 0
-nan -nan 0
-nan -nan 0
-nan -nan 0
-nan -nan 0
-nan -nan 0
-nan -nan 0
-nan -nan 0
-nan -nan 0
-nan -nan 0
-nan -nan 0
-nan -nan 0
-nan -nan 0
-nan -nan 0
-nan -nan 0
-nan -nan 0
-nan -nan 0
-nan -nan 0
-nan -nan 0
-nan -nan 0
-nan -nan 0
-nan -nan 0
-nan -nan 0
-nan -nan 0
-nan -nan 0
-nan -nan 0
-nan -nan 0
-nan -nan 0
-nan -nan 0
-nan -nan 0
-nan -nan 0
-nan -nan 0
-nan -nan 0
-nan -nan 0
-nan -nan 0
-nan -nan 0
-nan -nan 0
-nan -nan 0
-nan -nan 0
-nan -nan 0
-nan -nan 0
-nan -nan 0
-nan -nan 0
-nan -nan 0
-nan -nan 0
-nan -nan 0
-nan -nan 0
-nan -nan 0
-nan -nan 0
-nan -nan 0
-nan -nan 0
-nan -nan 0
-nan -nan 0
-nan -nan 0
-nan -nan 0
-nan -nan 0
-nan -nan 0
-nan -nan 0
-nan -nan 0
-nan -nan 0
-nan -nan 0
-nan -nan 0
-nan -nan 0
-nan -nan 0
-nan -nan 0
-nan -nan 0
-nan -nan 0
-nan -nan 0
-nan -nan 0
-nan -nan 0
-nan -nan 0
-nan -nan 0
-nan -nan 0
-nan -nan 0
-nan -nan 0
-nan -nan 0
-nan -nan 0
-nan -nan 0
-nan -nan 0
-nan -nan 0
-nan -nan 0
-nan -nan 0
-nan -nan 0
-nan -nan 0
-nan -nan 0
-nan -nan 0
-nan -nan 0
-nan -nan 0
-nan -nan 0
-nan -nan 0
-nan -nan 0
-nan -nan 0
-nan -nan 0
-nan -nan 0
-nan -nan 0
-nan -nan 0
-nan -nan 0
-nan -nan 0
-nan -nan 0
-nan -nan 0
-nan -nan 0
-nan -nan 0
-nan -nan 0
-nan -nan 0
-nan -nan 0
-nan -nan 0
-nan -nan 0
-nan -nan 0
-nan -nan 0
-nan -nan 0
-nan -nan 0
-nan -nan 0
-nan -nan 0
-nan -nan 0
-nan -nan 0
-nan -nan 0
-nan -nan 0
-nan -nan 0
-nan -nan 0
-nan -nan 0
-nan -nan 0
-nan -nan 0
-nan -nan 0
-nan -nan 0
-nan -nan 0
-nan -nan 0
-nan -nan 0
-nan -nan 0
-nan -nan 0
-nan -nan 0
-nan -nan 0
-nan -nan 0
-nan -nan 0
-nan -nan 0
-nan -nan 0
-nan -nan 0
-nan -nan 0
-nan -nan 0
-nan -nan 0
-nan -nan 0
-nan -nan 0
-nan -nan 0
-nan -nan 0
-nan -nan 0
-nan -nan 0
-nan -nan 0
-nan -nan 0
-nan -nan 0
-nan -nan 0
-nan -nan 0
-nan -nan 0
-nan -nan 0
-nan -nan 0
-nan -nan 0
-nan -nan 0
-nan -nan 0
-nan -nan 0
-nan -nan 0
-nan -nan 0
-nan -nan 0
-nan -nan 0
-nan -nan 0
-nan -nan 0
-nan -nan 0
-nan -nan 0
-nan -nan 0
-nan -nan 0
-nan -nan 0
-nan -nan 0
-nan -nan 0
-nan -nan 0
-nan -nan 0
-nan -nan 0
-nan -nan 0
-nan -nan 0
-nan -nan 0
-nan -nan 0
-nan -nan 0
-nan -nan 0
-nan -nan 0
-nan -nan 0
-nan -nan 0
-nan -nan 0
-nan -nan 0
-nan -nan 0
-nan -nan 0
-nan -nan 0
-nan -nan 0
-nan -nan 0
-nan -nan 0
-nan -nan 0
-nan -nan 0
-nan -nan 0
-nan -nan 0
-nan -nan 0
-nan -nan 0
-nan -nan 0
-nan -nan 0
-nan -nan 0
-nan -nan 0
-nan -nan 0
-nan -nan 0
-nan -nan 0
-nan -nan 0
-nan -nan 0
-nan -nan 0
-nan -nan 0
-nan -nan 0
-nan -nan 0
-nan -nan 0
-nan -nan 0
-nan -nan 0
-nan -nan 0
-nan -nan 0
-nan -nan 0
-nan -nan 0
-nan -nan 0
-nan -nan 0
-nan -nan 0
-nan -nan 0
-nan -nan 0
-nan -nan 0
-nan -nan 0
-nan -nan 0
-nan -nan 0
-nan -nan 0
-nan -nan 0
-nan -nan 0
-nan -nan 0
-nan -nan 0
-nan -nan 0
-nan -nan 0
-nan -nan 0
-nan -nan 0
-nan -nan 0
-nan -nan 0
-nan -nan 0
-nan -nan 0
-nan -nan 0
-nan -nan 0
-nan -nan 0
-nan -nan 0
-nan -nan 0
-nan -nan 0
-nan -nan 0
-nan -nan 0
-nan -nan 0
-nan -nan 0
-nan -nan 0
-nan -nan 0
-nan -nan 0
-nan -nan 0
-nan -nan 0
-nan -nan 0
-nan -nan 0
-nan -nan 0
-nan -nan 0
-nan -nan 0
-nan -nan 0
-nan -nan 0
-nan -nan 0
-nan -nan 0
-nan -nan 0
-nan -nan 0
-nan -nan 0
-nan -nan 0
-nan -nan 0
-nan -nan 0
-nan -nan 0
-nan -nan 0
-nan -nan 0
-nan -nan 0
-nan -nan 0
-nan -nan 0
-nan -nan 0
-nan -nan 0
-nan -nan 0
-nan -nan 0
-nan -nan 0
-nan -nan 0
-nan -nan 0
-nan -nan 0
-nan -nan 0
-nan -nan 0
-nan -nan 0
-nan -nan 0
-nan -nan 0
-nan -nan 0
-nan -nan 0
-nan -nan 0
-nan -nan 0
-nan -nan 0
-nan -nan 0
-nan -nan 0
-nan -nan 0
-nan -nan 0
-nan -nan 0
-nan -nan 0
-nan -nan 0
-nan -nan 0
-nan -nan 0
-nan -nan 0
-nan -nan 0
-nan -nan 0
-nan -nan 0
-nan -nan 0
-nan -nan 0
-nan -nan 0
-nan -nan 0
-nan -nan 0
-nan -nan 0
-nan -nan 0
-nan -nan 0
-nan -nan 0
-nan -nan 0
-nan -nan 0
-nan -nan 0
-nan -nan 0
-nan -nan 0
-nan -nan 0
-nan -nan 0
-nan -nan 0
-nan -nan 0
-nan -nan 0
-nan -nan 0
-nan -nan 0
-nan -nan 0
-nan -nan 0
-nan -nan 0
-nan -nan 0
-nan -nan 0
-nan -nan 0
-nan -nan 0
-nan -nan 0
-nan -nan 0
-nan -nan 0
-nan -nan 0
-nan -nan 0
-nan -nan 0
-nan -nan 0
-nan -nan 0
-nan -nan 0
-nan -nan 0
-nan -nan 0
-nan -nan 0
-nan -nan 0
-nan -nan 0
-nan -nan 0
-nan -nan 0
-nan -nan 0
-nan -nan 0
-nan -nan 0
-nan -nan 0
-nan -nan 0
-nan -nan 0
-nan -nan 0
-nan -nan 0
-nan -nan 0
-nan -nan 0
-nan -nan 0
-nan -nan 0
-nan -nan 0
-nan -nan 0
-nan -nan 0
-nan -nan 0
-nan -nan 0
-nan -nan 0
-nan -nan 0
-nan -nan 0
-nan -nan 0
-nan -nan 0
-nan -nan 0
-nan -nan 0
-nan -nan 0
-nan -nan 0
-nan -nan 0
-nan -nan 0
-nan -nan 0
-nan -nan 0
-nan -nan 0
-nan -nan 0
-nan -nan 0
-nan -nan 0
-nan -nan 0
-nan -nan 0
-nan -nan 0
-nan -nan 0
-nan -nan 0
-nan -nan 0
-nan -nan 0
-nan -nan 0
-nan -nan 0
-nan -nan 0
-nan -nan 0
-nan -nan 0
-nan -nan 0
-nan -nan 0
-nan -nan 0
-nan -nan 0
-nan -nan 0
-nan -nan 0
-nan -nan 0
-nan -nan 0
-nan -nan 0
-nan -nan 0
-nan -nan 0
-nan -nan 0
-nan -nan 0
-nan -nan 0
-nan -nan 0
-nan -nan 0
-nan -nan 0
-nan -nan 0
-nan -nan 0
-nan -nan 0
-nan -nan 0
-nan -nan 0
-nan -nan 0
-nan -nan 0
-nan -nan 0
-nan -nan 0
-nan -nan 0
-nan -nan 0
-nan -nan 0
-nan -nan 0
-nan -nan 0
-nan -nan 0
-nan -nan 0
-nan -nan 0
-nan -nan 0
-nan -nan 0
-nan -nan 0
-nan -nan 0
-nan -nan 0
-nan -nan 0
-nan -nan 0
-nan -nan 0
-nan -nan 0
-nan -nan 0
-nan -nan 0
-nan -nan 0
-nan -nan 0
-nan -nan 0
-nan -nan 0
-nan -nan 0
-nan -nan 0
-nan -nan 0
-nan -nan 0
-nan -nan 0
-nan -nan 0
-nan -nan 0
-nan -nan 0
-nan -nan 0
-nan -nan 0
-nan -nan 0
-nan -nan 0
-nan -nan 0
-nan -nan 0
-nan -nan 0
-nan -nan 0
-nan -nan 0
-nan -nan 0
-nan -nan 0
-nan -nan 0
-nan -nan 0
-nan -nan 0
-nan -nan 0
-nan -nan 0
-nan -nan 0
-nan -nan 0
-nan -nan 0
-nan -nan 0
-nan -nan 0
-nan -nan 0
-nan -nan 0
-nan -nan 0
-nan -nan 0
-nan -nan 0
-nan -nan 0
-nan -nan 0
-nan -nan 0
-nan -nan 0
-nan -nan 0
-nan -nan 0
-nan -nan 0
-nan -nan 0
-nan -nan 0
-nan -nan 0
-nan -nan 0
-nan -nan 0
-nan -nan 0
-nan -nan 0
-nan -nan 0
-nan -nan 0
-nan -nan 0
-nan -nan 0
-nan -nan 0
-nan -nan 0
-nan -nan 0
-nan -nan 0
-nan -nan 0
-nan -nan 0
-nan -nan 0
-nan -nan 0
-nan -nan 0
-nan -nan 0
-nan -nan 0
-nan -nan 0
-nan -nan 0
-nan -nan 0
-nan -nan 0
-nan -nan 0
-nan -nan 0
-nan -nan 0
-nan -nan 0
-nan -nan 0
-nan -nan 0
-nan -nan 0
-nan -nan 0
-nan -nan 0
-nan -nan 0
-nan -nan 0
-nan -nan 0
-nan -nan 0
-nan -nan 0
-nan -nan 0
-nan -nan 0
-nan -nan 0
-nan -nan 0
-nan -nan 0
-nan -nan 0
-nan -nan 0
-nan -nan 0
-nan -nan 0
-nan -nan 0
-nan -nan 0
-nan -nan 0
-nan -nan 0
-nan -nan 0
-nan -nan 0
-nan -nan 0
-nan -nan 0
-nan -nan 0
-nan -nan 0
-nan -nan 0
-nan -nan 0
-nan -nan 0
-nan -nan 0
-nan -nan 0
-nan -nan 0
-nan -nan 0
-nan -nan 0
-nan -nan 0
-nan -nan 0
-nan -nan 0
-nan -nan 0
-nan -nan 0
-nan -nan 0
-nan -nan 0
-nan -nan 0
-nan -nan 0
-nan -nan 0
-nan -nan 0
-nan -nan 0
-nan -nan 0
-nan -nan 0
-nan -nan 0
-nan -nan 0
-nan -nan 0
-nan -nan 0
-nan -nan 0
-nan -nan 0
-nan -nan 0
-nan -nan 0
-nan -nan 0
-nan -nan 0
-nan -nan 0
-nan -nan 0
-nan -nan 0
-nan -nan 0
-nan -nan 0
-nan -nan 0
-nan -nan 0
-nan -nan 0
-nan -nan 0
-nan -nan 0
-nan -nan 0
-nan -nan 0
-nan -nan 0
-nan -nan 0
-nan -nan 0
-nan -nan 0
-nan -nan 0
-nan -nan 0
-nan -nan 0
-nan -nan 0
-nan -nan 0
-nan -nan 0
-nan -nan 0
-nan -nan 0
-nan -nan 0
-nan -nan 0
-nan -nan 0
-nan -nan 0
-nan -nan 0
-nan -nan 0
-nan -nan 0
-nan -nan 0
-nan -nan 0
-nan -nan 0
-nan -nan 0
-nan -nan 0
-nan -nan 0
-nan -nan 0
-nan -nan 0
-nan -nan 0
-nan -nan 0
-nan -nan 0
-nan -nan 0
-nan -nan 0
-nan -nan 0
-nan -nan 0
-nan -nan 0
-nan -nan 0
-nan -nan 0
-nan -nan 0
-nan -nan 0
-nan -nan 0
-nan -nan 0
-nan -nan 0
-nan -nan 0
-nan -nan 0
-nan -nan 0
-nan -nan 0
-nan -nan 0
-nan -nan 0
-nan -nan 0
-nan -nan 0
-nan -nan 0
-nan -nan 0
-nan -nan 0
-nan -nan 0
-nan -nan 0
-nan -nan 0
-nan -nan 0
-nan -nan 0
-nan -nan 0
-nan -nan 0
-nan -nan 0
-nan -nan 0
-nan -nan 0
-nan -nan 0
-nan -nan 0
-nan -nan 0
-nan -nan 0
-nan -nan 0
-nan -nan 0
-nan -nan 0
-nan -nan 0
-nan -nan 0
-nan -nan 0
-nan -nan 0
-nan -nan 0
-nan -nan 0
-nan -nan 0
-nan -nan 0
-nan -nan 0
-nan -nan 0
-nan -nan 0
-nan -nan 0
-nan -nan 0
-nan -nan 0
-nan -nan 0
-nan -nan 0
-nan -nan 0
-nan -nan 0
-nan -nan 0
-nan -nan 0
-nan -nan 0
-nan -nan 0
-nan -nan 0
-nan -nan 0
-nan -nan 0
-nan -nan 0
-nan -nan 0
-nan -nan 0
-nan -nan 0
-nan -nan 0
-nan -nan 0
-nan -nan 0
-nan -nan 0
-nan -nan 0
-nan -nan 0
-nan -nan 0
-nan -nan 0
-nan -nan 0
-nan -nan 0
-nan -nan 0
-nan -nan 0
-nan -nan 0
-nan -nan 0
-nan -nan 0
-nan -nan 0
-nan -nan 0
-nan -nan 0
-nan -nan 0
-nan -nan 0
-nan -nan 0
-nan -nan 0
-nan -nan 0
-nan -nan 0
-nan -nan 0
-nan -nan 0
-nan -nan 0
-nan -nan 0
-nan -nan 0
-nan -nan 0
-nan -nan 0
-nan -nan 0
-nan -nan 0
-nan -nan 0
-nan -nan 0
-nan -nan 0
-nan -nan 0
-nan -nan 0
-nan -nan 0
-nan -nan 0
-nan -nan 0
-nan -nan 0
-nan -nan 0
-nan -nan 0
-nan -nan 0
-nan -nan 0
-nan -nan 0
-nan -nan 0
-nan -nan 0
-nan -nan 0
-nan -nan 0
-nan -nan 0
-nan -nan 0
-nan -nan 0
-nan -nan 0
-nan -nan 0
-nan -nan 0
-nan -nan 0
-nan -nan 0
-nan -nan 0
-nan -nan 0
-nan -nan 0
-nan -nan 0
-nan -nan 0
-nan -nan 0
-nan -nan 0
-nan -nan 0
-nan -nan 0
-nan -nan 0
-nan -nan 0
-nan -nan 0
-nan -nan 0
-nan -nan 0
-nan -nan 0
-nan -nan 0
-nan -nan 0
-nan -nan 0
-nan -nan 0
-nan -nan 0
-nan -nan 0
-nan -nan 0
-nan -nan 0
-nan -nan 0
-nan -nan 0
-nan -nan 0
-nan -nan 0
-nan -nan 0
-nan -nan 0
-nan -nan 0
-nan -nan 0
-nan -nan 0
-nan -nan 0
-nan -nan 0
-nan -nan 0
-nan -nan 0
-nan -nan 0
-nan -nan 0
-nan -nan 0
-nan -nan 0
-nan -nan 0
-nan -nan 0
-nan -nan 0
-nan -nan 0
-nan -nan 0
-nan -nan 0
-nan -nan 0
-nan -nan 0
-nan -nan 0
-nan -nan 0
-nan -nan 0
-nan -nan 0
-nan -nan 0
-nan -nan 0
-nan -nan 0
-nan -nan 0
-nan -nan 0
-nan -nan 0
-nan -nan 0
-nan -nan 0
-nan -nan 0
-nan -nan 0
-nan -nan 0
-nan -nan 0
-nan -nan 0
-nan -nan 0
-nan -nan 0
-nan -nan 0
-nan -nan 0
-nan -nan 0
-nan -nan 0
-nan -nan 0
-nan -nan 0
-nan -nan 0
-nan -nan 0
-nan -nan 0
-nan -nan 0
-nan -nan 0
-nan -nan 0
-nan -nan 0
-nan -nan 0
-nan -nan 0
-nan -nan 0
-nan -nan 0
-nan -nan 0
-nan -nan 0
-nan -nan 0
-nan -nan 0
-nan -nan 0
-nan -nan 0
-nan -nan 0
-nan -nan 0
-nan -nan 0
-nan -nan 0
-nan -nan 0
-nan -nan 0
-nan -nan 0
-nan -nan 0
-nan -nan 0
-nan -nan 0
-nan -nan 0
-nan -nan 0
-nan -nan 0
-nan -nan 0
-nan -nan 0
-nan -nan 0
-nan -nan 0
-nan -nan 0
-nan -nan 0
-nan -nan 0
-nan -nan 0
-nan -nan 0
-nan -nan 0
-nan -nan 0
-nan -nan 0
-nan -nan 0
-nan -nan 0
-nan -nan 0
-nan -nan 0
-nan -nan 0
-nan -nan 0
-nan -nan 0
-nan -nan 0
-nan -nan 0
-nan -nan 0
-nan -nan 0
-nan -nan 0
-nan -nan 0
-nan -nan 0
-nan -nan 0
-nan -nan 0
-nan -nan 0
-nan -nan 0
-nan -nan 0
-nan -nan 0
-nan -nan 0
-nan -nan 0
-nan -nan 0
-nan -nan 0
-nan -nan 0
-nan -nan 0
-nan -nan 0
-nan -nan 0
-nan -nan 0
-nan -nan 0
-nan -nan 0
-nan -nan 0
-nan -nan 0
-nan -nan 0
-nan -nan 0
-nan -nan 0
-nan -nan 0
-nan -nan 0
-nan -nan 0
-nan -nan 0
-nan -nan 0
-nan -nan 0
-nan -nan 0
-nan -nan 0
-nan -nan 0
-nan -nan 0
-nan -nan 0
-nan -nan 0
-nan -nan 0
-nan -nan 0
-nan -nan 0
-nan -nan 0
-nan -nan 0
-nan -nan 0
-nan -nan 0
-nan -nan 0
-nan -nan 0
-nan -nan 0
-nan -nan 0
-nan -nan 0
-nan -nan 0
-nan -nan 0
-nan -nan 0
-nan -nan 0
-nan -nan 0
-nan -nan 0
-nan -nan 0
-nan -nan 0
-nan -nan 0
-nan -nan 0
-nan -nan 0
-nan -nan 0
-nan -nan 0
-nan -nan 0
-nan -nan 0
-nan -nan 0
-nan -nan 0
-nan -nan 0
-nan -nan 0
-nan -nan 0
-nan -nan 0
-nan -nan 0
-nan -nan 0
-nan -nan 0
-nan -nan 0
-nan -nan 0
-nan -nan 0
-nan -nan 0
-nan -nan 0
-nan -nan 0
-nan -nan 0
-nan -nan 0
-nan -nan 0
-nan -nan 0
-nan -nan 0
-nan -nan 0
-nan -nan 0
-nan -nan 0
-nan -nan 0
-nan -nan 0
-nan -nan 0
-nan -nan 0
-nan -nan 0
-nan -nan 0
-nan -nan 0
-nan -nan 0
-nan -nan 0
-nan -nan 0
-nan -nan 0
-nan -nan 0
-nan -nan 0
-nan -nan 0
-nan -nan 0
-nan -nan 0
-nan -nan 0
-nan -nan 0
-nan -nan 0
-nan -nan 0
-nan -nan 0
-nan -nan 0
-nan -nan 0
-nan -nan 0
-nan -nan 0
-nan -nan 0
-nan -nan 0
-nan -nan 0
-nan -nan 0
-nan -nan 0
-nan -nan 0
-nan -nan 0
      </DataArray> 
      <DataArray type="Float64" NumberOfComponents="3" Name="MeshDisp" format="ascii">
0 0 0
0 0 0
0 0 0
1 0 0
1 0 0
0 0 0
0 0 0
0 0 0
0 0 0
0 0 0
0 0 0
0 0 0
0 0 0
0 0 0
0 0 0
0 0 0
0 0 0
0 0 0
0 0 0
0 0 0
0.08510816657971938 0 0
0.1122111706061065 0 0
0.1353412143259824 0 0
0.1571855977108809 0 0
0.1782864982614061 0 0
0.1989489896804735 0 0
0.2192801413824535 0 0
0.2393851309143522 0 0
0.2593302861383593 0 0
0.279160132593796 0 0
0.2989039909450608 0 0
0.3185824167506526 0 0
0.3382114909267184 0 0
0.3578020984442957 0 0
0.3773625229669954 0 0
0.3968993645961707 0 0
0.4164175123493643 0 0
0.4359208456340901 0 0
0.4554123396729667 0 0
0.4748943734721041 0 0
0.4943687985412971 0 0
0.5138371068101482 0 0
0.5333004654410984 0 0
0.5527598258368775 0 0
0.5722159397669723 0 0
0.5916694230422926 0 0
0.6111207644505284 0 0
0.6305703652763573 0 0
0.6500185450255415 0 0
0.6694655674145829 0 0
0.688911644086688 0 0
0.7083569504351899 0 0
0.7278016273559019 0 0
0.7472457912729318 0 0
0.7666895357756709 0 0
0.7861329386210109 0 0
0.8055760624121374 0 0
0.8250189590435477 0 0
0.8444616706873678 0 0
0.863904233796274 0 0
0.8833466770507188 0 0
0.9027890249283752 0 0
0.9222312985875869 0 0
0.9416735165290498 0 0
0.9611156955533382 0 0
0.9805578520057983 0 0
1 0 0
1 0 0
1 0 0
0.9999999999999999 0 0
1 0 0
1 0 0
1 0 0
0.9999999999999999 0 0
1 0 0
1 0 0
0.9999999999999999 0 0
1 0 0
1 0 0
1 0 0
0.9806409555225151 0 0
0.9612819329528487 0 0
0.9419229471763312 0 0
0.9225640160529588 0 0
0.9032051593255963 0 0
0.8838464007135365 0 0
0.8644877709588364 0 0
0.8451292984370908 0 0
0.8257710327892603 0 0
0.8064130161487824 0 0
0.7870553099607366 0 0
0.7676979941712487 0 0
0.7483411497968863 0 0
0.7289848995328408 0 0
0.709629365198461 0 0
0.6902747329310988 0 0
0.6709211873149209 0 0
0.6515690177734355 0 0
0.6322184769475694 0 0
0.6128700247529391 0 0
0.5935240597608121 0 0
0.5741812488433961 0 0
0.5548422964480415 0 0
0.5355080799694955 0 0
0.5161797119125436 0 0
0.4968585828041858 0 0
0.4775463625670842 0 0
0.4582451796540565 0 0
0.4389577032581263 0 0
0.419686970602588 0 0
0.4004368714557254 0 0
0.3812126521876716 0 0
0.3620195649285087 0 0
0.3428659094294338 0 0
0.3237605726257004 0 0
0.3047147571507307 0 0
0.2857421925190049 0 0
0.2668588884002536 0 0
0.2480851299033238 0 0
0.2294447741482898 0 0
0.2109674426437282 0 0
0.192690678644941 0 0
0.174650898277282 0 0
0.1568849619597467 0 0
0.1394299967135174 0 0
0.1223324678818566 0 0
0.1056387831089459 0 0
0.08945639826860224 0 0
0.07395658430568081 0 0
0.05940396653492475 0 0
0.04596533618629581 0 0
0.03390892710602908 0 0
0.02337260214433936 0 0
0.01514127581594386 0 0
0.008858027792097076 0 0
0.004553182846289782 0 0
0.002005681631057493 0 0
0.0006054974996277578 0 0
0 0 0
0 0 0
0 0 0
0 0 0
0 0 0
0 0 0
0 0 0
0 0 0
0 0 0
0 0 0
0 0 0
0 0 0
0 0 0
0 0 0
0 0 0
0 0 0
0 0 0
0 0 0
0.05381430428581975 0 0
0.06609619761035095 0 0
0.1660317962693073 0 0
0.8365030549184302 0 0
0.7580193436603785 0 0
0.6805974429436625 0 0
0.6031958756655468 0 0
0.526836945292387 0 0
0.4495695567622561 0 0
0.371602553150688 0 0
0.2951991574628632 0 0
-0.0001353433749986498 0 0
0.2293889352443181 0 0
0.7964490095809745 0 0
0.7180787625687488 0 0
0.6402951825604032 0 0
0.5624903847534781 0 0
0.4846362545982657 0 0
0.4066667070283094 0 0
0.3284118274821317 0 0
0.02988741807433773 0 0
0.06305164746923497 0 0
0.9815430366706952 0 0
0.03662945570845478 0 0
0.06047210141186517 0 0
0.03882515608932333 0 0
0.05767229841631211 0 0
0.8749285089194689 0 0
0.03888160700201503 0 0
0.0546701114296412 0 0
0.07299255610087364 0 0
0.06845787779757428 0 0
0.08630199133189267 0 0
0.08094065428652948 0 0
0.09832413349794815 0 0
0.06475947699903835 0 0
0.01873675564027799 0 0
0.2201832434669093 0 0
0.09234943437989565 0 0
0.109514606511749 0 0
0.8949633525712792 0 0
-0.0007161252318869357 0 0
0.1029411436791814 0 0
0.1200705358718569 0 0
0.0001673190671469543 0 0
-0.0009857016167701823 0 0
0.1269898182222672 0 0
0.1374454154268666 0 0
0.1131732296880106 0 0
0.09639589349018202 0 0
0.9826128205019764 0 0
0.1449550071879356 0 0
0.155288457173855 0 0
0.02176056791652443 0 0
0.02361962301022981 0 0
0.1631556558937456 0 0
0.173475556521948 0 0
0.1062455499002606 0 0
0.08991527792412543 0 0
0.1650777994644642 0 0
0.1835884039710317 0 0
0.1919072184541482 0 0
0.2020028080180129 0 0
0.2105744317155065 0 0
0.2206189406494286 0 0
0.2293428722427897 0 0
0.2393887181384463 0 0
0.2480579623243007 0 0
0.2583101128325022 0 0
0.2674489075505398 0 0
0.2773933639652156 0 0
0.2865977104980394 0 0
0.2965158196808639 0 0
0.3058036816073266 0 0
0.3156945110081132 0 0
0.3250482160865955 0 0
0.334915158902365 0 0
0.3441425613544215 0 0
0.3541526719495804 0 0
0.3635141278389692 0 0
0.3734565087645795 0 0
0.3829458153969266 0 0
0.3927843866253733 0 0
0.4023095029448973 0 0
0.4121238476486884 0 0
0.4216689196639349 0 0
0.4314733392622229 0 0
0.4410364146667841 0 0
0.4508327286469592 0 0
0.4604108179693597 0 0
0.4702010038907577 0 0
0.4797912041002111 0 0
0.4895777569838478 0 0
0.4991764442155452 0 0
0.5089589636301458 0 0
0.5185653207074298 0 0
0.5283439139418826 0 0
0.5379569316063449 0 0
0.5477327235377137 0 0
0.557350911198543 0 0