<?xml version="1.0"?>
<VTKFile type="UnstructuredGrid">
  <UnstructuredGrid>
  <Piece NumberOfPoints="1224"  NumberOfCells="2290">
    <Points>
      <DataArray type="Float64" NumberOfComponents="3" format="ascii">
0 0 0
0.6 0 0
0.6 0.2 0
3 0.2 0
3 1 0
0 1 0
0.05454545454535233 0 0
0.1090909090906768 0 0
0.1636363636359771 0 0
0.2181818181812728 0 0
0.2727272727265793 0 0
0.3272727272720317 0 0
0.3818181818176247 0 0
0.4363636363632168 0 0
0.4909090909088285 0 0
0.5454545454544089 0 0
0.6 0.03999999999991203 0
0.6 0.07999999999979179 0
0.6 0.1199999999997886 0
0.6 0.1599999999998948 0
0.6510638297871261 0.2 0
0.7021276595742618 0.2 0
0.7531914893613819 0.2 0
0.8042553191485237 0.2 0
0.8553191489356438 0.2 0
0.9063829787228289 0.2 0
0.957446808509926 0.2 0
1.008510638297009 0.2 0
1.059574468084092 0.2 0
1.110638297871174 0.2 0
1.161702127658257 0.2 0
1.21276595744534 0.2 0
1.263829787232422 0.2 0
1.314893617019505 0.2 0
1.365957446806588 0.2 0
1.417021276593671 0.2 0
1.468085106380754 0.2 0
1.519148936167923 0.2 0
1.570212765955006 0.2 0
1.621276595742088 0.2 0
1.672340425529171 0.2 0
1.723404255316254 0.2 0
1.774468085103337 0.2 0
1.825531914890624 0.2 0
1.876595744677951 0.2 0
1.927659574465349 0.2 0
1.978723404252714 0.2 0
2.029787234040074 0.2 0
2.080851063827477 0.2 0
2.131914893614798 0.2 0
2.182978723402204 0.2 0
2.234042553189523 0.2 0
2.285106382976928 0.2 0
2.336170212764247 0.2 0
2.387234042551653 0.2 0
2.438297872338975 0.2 0
2.489361702126377 0.2 0
2.540425531913739 0.2 0
2.591489361701102 0.2 0
2.642553191488421 0.2 0
2.693617021275827 0.2 0
2.744680851063146 0.2 0
2.795744680850551 0.2 0
2.84680851063787 0.2 0
2.897872340425276 0.2 0
2.948936170212618 0.2 0
3 0.2533333333332341 0
3 0.3066666666664725 0
3 0.3599999999996274 0
3 0.413333333332804 0
3 0.4666666666659806 0
3 0.5199999999991571 0
3 0.5733333333323336 0
3 0.6266666666656895 0
3 0.6799999999991551 0
3 0.7333333333326146 0
3 0.7866666666660802 0
3 0.8399999999995775 0
3 0.8933333333330373 0
3 0.9466666666664969 0
2.949152542373491 1 0
2.898305084746983 1 0
2.847457627120474 1 0
2.796610169493702 1 0
2.745762711866469 1 0
2.694915254239208 1 0
2.644067796611963 1 0
2.593220338985156 1 0
2.542372881358647 1 0
2.491525423732018 1 0
2.44067796610481 1 0
2.389830508477549 1 0
2.338983050850287 1 0
2.288135593223026 1 0
2.237288135595765 1 0
2.186440677968504 1 0
2.135593220341243 1 0
2.084745762713982 1 0
2.033898305086721 1 0
1.983050847459614 1 0
1.932203389832729 1 0
1.881355932205844 1 0
1.830508474578958 1 0
1.779661016952073 1 0
1.728813559325189 1 0
1.677966101698303 1 0
1.627118644071418 1 0
1.576271186444533 1 0
1.525423728817648 1 0
1.474576271190575 1 0
1.423728813563314 1 0
1.372881355936053 1 0
1.322033898308791 1 0
1.27118644068153 1 0
1.220338983054269 1 0
1.169491525427008 1 0
1.118644067799747 1 0
1.067796610172485 1 0
1.016949152545224 1 0
0.9661016949179628 1 0
0.9152542372907018 1 0
0.8644067796634407 1 0
0.8135593220361792 1 0
0.7627118644089181 1 0
0.7118644067816566 1 0
0.661016949154396 1 0
0.6101694915271345 1 0
0.5593220338998739 1 0
0.5084745762726124 1 0
0.4576271186453518 1 0
0.4067796610180903 1 0
0.3559322033908292 1 0
0.3050847457635677 1 0
0.2542372881363066 1 0
0.2033898305090456 1 0
0.1525423728817841 1 0
0.101694915254523 1 0
0.05084745762726151 1 0
0 0.9473684210524125 0
0 0.8947368421048248 0
0 0.8421052631576025 0
0 0.7894736842105994 0
0 0.7368421052635962 0
0 0.6842105263165927 0
0 0.6315789473695894 0
0 0.5789473684225861 0
0 0.5263157894755828 0
0 0.4736842105282874 0
0 0.4210526315806998 0
0 0.3684210526331123 0
0 0.3157894736855248 0
0 0.2631578947379374 0
0 0.21052631579035 0
0 0.1578947368427625 0
0 0.1052631578951749 0
0 0.05263157894758741 0
0.4374856279758046 0.955462795473483 0
0.625531914893563 0.2394317949808221 0
0.7891616249544176 0.9557759867023439 0
2.570562443351098 0.9559758769411787 0
2.364406779663917 0.9559648099769389 0
2.161016949154874 0.9559648099769389 0
1.957627118646171 0.9559648099772646 0
1.756856606547665 0.9560078743553572 0
1.553415402058453 0.9561420672712786 0
1.347457627122422 0.95627738856474 0
1.144067796613377 0.9563034567995272 0
0.04146670856173688 0.5498854761242812 0
0.9828861012149002 0.2442383967812095 0
2.465390809289578 0.2421522008426663 0
2.259572257543314 0.243586373321511 0
2.055319178697841 0.24363095694403 0
1.851066099915384 0.2436741865527954 0
1.646810778591931 0.2437170671454607 0
1.442550972205278 0.2437587738062726 0
1.238275543433999 0.2442249255777628 0
0.5808319854219957 0.2417757800606361 0
0.6039807146029165 0.2785115072887754 0
2.951522810440164 0.5995349944823752 0
0.5591131416216563 0.2791940688436214 0
0.5817690965011905 0.3180386921514113 0
0.5363223429032008 0.3181181454258206 0
0.5590799034518541 0.3577335228902347 0
2.671507320584846 0.2416532643303031 0
0.5129751095268966 0.3576683284772433 0
0.5360042291720796 0.3976917483469583 0
0.5824744072527975 0.3977458985417416 0
0.5593202208963615 0.4382323507424581 0
0.6062221806132498 0.4382172989803606 0
0.5831398502988122 0.4790536480492864 0
0.630245509211025 0.4792447281197085 0
0.5373735766893435 0.4817209888486334 0
0.2780994584865757 0.9660670791366374 0
0.9407829849899363 0.9559852449915113 0
0.6069171020766708 0.5203953730037822 0
0.6544691944766102 0.5205851219036783 0
2.724115018794794 0.9563165682871465 0
0.04341732373162228 0.2894490564426765 0
0.6304562046384772 0.5622881188475496 0
0.6786259291441818 0.5621981517123112 0
0.03938236249337418 0.7091098825652095 0
0.2999999999993055 0.04723774929726795 0
0.7024556039582556 0.5200372393771872 0
0.726826368578132 0.562505099575485 0
0.6545296629344706 0.6041261864689124 0
0.6061411599039735 0.6041581669226386 0
2.954333097254252 0.4393531299125908 0
0.7512905139641642 0.5199435586712576 0
0.7757938242112172 0.5624873891767795 0
0.4902278874550028 0.3174350849704655 0
0.4661669324669476 0.3576870257641042 0
0.8003371868304782 0.5195844107098163 0
0.8251782158071723 0.5621174250913318 0
0.6300572939290072 0.6460588488486728 0
0.581677101888915 0.6462390077748084 0
0.7994632498085218 0.6067218912904607 0
0.850068894442807 0.6047738158182728 0
0.8747482025846163 0.5617915498272615 0
0.8998102571129438 0.6045430073239006 0
0.924588798996443 0.5614360364847856 0
0.9497125983499418 0.6046345614192383 0
0.9744389394813738 0.5613114208485291 0
0.9997656958801404 0.604758732930365 0
1.024028015453996 0.5597386087889248 0
1.050046148741532 0.6042836632406788 0
1.075213347289947 0.5607219500906248 0
1.100604808237692 0.6043040651294929 0
1.125727120818654 0.5598592244124957 0
1.151165990249003 0.6040638744783449 0
1.176319565514503 0.5595216793632644 0
1.201793840633129 0.6038781229769293 0
1.226960854257978 0.5600604284234054 0
1.252470704079807 0.6038664424080111 0
1.277198987313166 0.55874807111347 0
1.303148970446812 0.6035341865995129 0
1.328130525802366 0.5586520846649797 0
1.353966012915828 0.6034054551655909 0
1.379205474149696 0.558835304845746 0
1.404820923589671 0.6032503772964327 0
1.430092956912838 0.5587079795953892 0
1.455686300628245 0.6030926920218221 0
1.480963489515269 0.5580480170404921 0
1.506562983627252 0.6028436706904448 0
1.531847734917255 0.5577680566445021 0
1.557453558526421 0.6026435181305781 0
1.582745756648754 0.5575726351194972 0
1.608358176126191 0.6024617369905624 0
1.633656322435163 0.5573842056888257 0
1.659277805706528 0.6022873884346892 0
1.684577462424181 0.5572075399874397 0
1.710203504633815 0.6021111834258887 0
1.735506494091908 0.5570246051384745 0
1.761134606493805 0.6019307913070558 0
1.786441498808711 0.5568475628142857 0
1.812072359676459 0.6017522495250318 0
1.837381834584306 0.5566653603575672 0
1.863017119880456 0.601574020443024 0
1.888326681794851 0.5564884669211013 0
1.913963858781491 0.601395113412113 0
1.939274704592935 0.5563067813822595 0
1.964908406083961 0.6012129143420911 0
1.990224566339525 0.5561292537946573 0
2.015859329864652 0.601032757987411 0
2.041177190815608 0.5559477304122714 0
2.066818109147928 0.600855564813206 0
2.09213259478423 0.5557710179709322 0
2.117774443326183 0.6006760179252703 0
2.143088896138059 0.5555900146741853 0
2.168729305797513 0.6004921726308964 0
2.194045774061603 0.5554125217101814 0
2.219686577151481 0.6003111949874665 0
2.245003702950199 0.5552312296013228 0
2.270641766736839 0.6001298880828497 0
2.295962173634055 0.5550546947866846 0
2.321601310982481 0.599950595338254 0
2.346923922781879 0.5548708301001631 0
2.372568004594504 0.5997713467128002 0
2.397895756972162 0.5547000681173012 0
2.423546697517365 0.5996004731097838 0
2.448884659670238 0.5545095609010697 0
2.474538141419978 0.5994220729206983 0
2.499902931415869 0.5543494429014709 0
2.525546234724433 0.5993228147833797 0
2.550973655834774 0.5541346321759457 0
2.576685338327378 0.5992395038842441 0
2.602182482443039 0.5540180644105763 0
2.958944511946492 0.7598964409357507 0
2.628014314012249 0.5990918128353608 0
0.4429170888396284 0.3159793431387367 0
0.4184631156771032 0.357715436029677 0
0.3946070818022522 0.3157219358498637 0
0.3697276561976696 0.3576135465858128 0
2.449044355814981 0.643990885448769 0
2.24531935830005 0.6444881680698032 0
1.024857369602972 0.6487487015028032 0
2.041498164113345 0.6452136474256573 0
1.837701628146142 0.6459229900926835 0
0.3455853078837237 0.3150377509381005 0
0.3204780172155196 0.3574251905568473 0
0.3449438693484468 0.4002519798591844 0
1.633970683060678 0.6466170330762969 0
1.227333380683899 0.6479317947648683 0
1.430444030483603 0.6473399689389928 0
0.875196942148915 0.6483605753517908 0
0.6057010339261732 0.6883083412871458 0
0.5571396249147901 0.6885103796531055 0
2.653543252321963 0.5527758280498023 0
1.099471497978971 0.5148848291986879 0
2.602427017093663 0.6438096025956825 0
2.653851606946175 0.6437140715169269 0
1.353138019780104 0.5138574114565649 0
1.556762689169365 0.5115839513085039 0
1.760509743411542 0.5109012431757174 0
1.964341412665395 0.510388685431229 0
0.2953909602266698 0.4001745965167012 0
[...]
    <PointData>
      <DataArray type="Float64" NumberOfComponents="3" Name="Velocity" format="ascii">
3.000000026712262 0 0
0 0 0
0 0 0
3.199195087565332 0 0
3.201176509220319 0 0
3.00000000000012 0 0
3.000000025676284 0 0
2.999999650071718 0 0
3.000002275172724 0 0
2.999987665315471 0 0
3.000039706500941 0 0
3.000072194372198 0 0
2.997701877117726 0 0
3.014451772376667 0 0
3.014187549898868 0 0
2.077006264480341 0 0
0 0.008794756208789849 0
0 -0.00471662983299253 0
0 0.0329971524376458 0
0 0.1500679473764596 0
1.965936245825034 0 0
2.705653432091761 0 0
2.944345434022238 0 0
2.998009043066497 0 0
3.001882510990006 0 0
3.000081440637415 0 0
2.9998753442825 0 0
3.000020707320371 0 0
3.000003243846164 0 0
2.999997792016975 0 0
3.000000659161826 0 0
2.999999898846932 0 0
2.999999992476523 0 0
3.000000009809099 0 0
2.999999996784524 0 0
3.000000000526275 0 0
2.999999999997332 0 0
2.999999999973086 0 0
3.000000000011338 0 0
2.999999999996487 0 0
3.000000000000993 0 0
2.999999999999735 0 0
3.000000000000064 0 0
2.999999999999983 0 0
3.000000000000013 0 0
2.999999999999968 0 0
3.000000000000052 0 0
3.000000000000043 0 0
2.999999999999668 0 0
2.999999999999842 0 0
3.000000000004742 0 0
2.99999999999201 0 0
2.999999999937565 0 0
3.000000000377977 0 0
2.999999999340689 0 0
2.999999999938966 0 0
2.999999997395089 0 0
3.000000043114738 0 0
2.999999734542234 0 0
3.000001141978514 0 0
2.999997958095461 0 0
2.999988853250442 0 0
3.000099047957354 0 0
2.999684180224751 0 0
2.999093273044554 0 0
3.026781626795816 0 0
3.201045401841265 0.0006434751228522289 0
3.190901594368207 -0.0001581832528692974 0
3.192046697044108 0.0001328115220079977 0
3.191702780239201 -0.0001135568738308183 0
3.19379708304472 -0.0002128158839402291 0
3.196160282823034 -6.878841325873045e-05 0
3.194214299149705 0.0002014540959575298 0
3.193488664629796 -0.0003855615684873799 0
3.19711762344018 -3.973575941796225e-05 0
3.194781759850238 0.0001239113427686958 0
3.1961029087937 0.0001418141787748824 0
3.192689106386263 0.0001907169805844639 0
3.191541662500802 -0.0007172972254612223 0
3.203550694673081 -0.0004553868318950503 0
3.022981286777607 0 0
2.999224904207618 0 0
2.999694287608363 0 0
3.000072929403259 0 0
2.999992328680339 0 0
2.999998406999076 0 0
3.000000907827362 0 0
2.99999977446186 0 0
3.000000039232275 0 0
2.999999994968968 0 0
3.000000001090892 0 0
2.999999999163584 0 0
3.000000000287962 0 0
2.999999999975308 0 0
2.999999999987763 0 0
3.000000000004269 0 0
2.999999999999958 0 0
2.999999999999639 0 0
3.000000000000126 0 0
2.999999999999976 0 0
3.000000000000003 0 0
3.000000000000001 0 0
3 0 0
3 0 0
3 0 0
3 0 0
3.000000000000002 0 0
2.999999999999999 0 0
3 0 0
3.000000000000008 0 0
2.999999999999993 0 0
2.99999999999996 0 0
3.000000000000079 0 0
3.000000000000116 0 0
2.99999999999959 0 0
2.999999999999673 0 0
3.000000000001704 0 0
3.000000000000706 0 0
2.999999999994595 0 0
2.999999999998029 0 0
3.000000000013114 0 0
3.000000000013957 0 0
2.999999999990783 0 0
2.999999999968249 0 0
2.999999999966918 0 0
2.999999999977234 0 0
2.999999999983749 0 0
2.99999999998362 0 0
2.999999999996482 0 0
2.999999999999854 0 0
2.999999999998372 0 0
3.000000000001085 0 0
3.000000000001076 0 0
2.999999999999849 0 0
3.000000000000065 0 0
3.000000000000018 0 0
3.000000000000044 0 0
2.999999999999929 0 0
3.00000000000004 0 0
3.000000000000121 0 0
3.000000000000315 0 0
2.999999999988538 0 0
3.000000000018283 0 0
2.999999999916292 0 0
3.000000000136577 0 0
3.000000000060198 0 0
2.999999999440029 0 0
3.000000000633942 0 0
3.000000002598011 0 0
3.000000002680314 0 0
2.999999997281682 0 0
2.999999979275155 0 0
2.999999950972163 0 0
2.999999944920326 0 0
2.999999973189846 0 0
2.999999998276976 0 0
3.000000000004365 -1.169282263361158e-11 0
2.035229153208637 0.2736752690286521 0
3.000000000041819 2.207857215874124e-11 0
2.999999919195675 -1.668274008833013e-10 0
2.999999999840189 -8.923974088851756e-12 0
2.999999999998131 3.532563397665731e-13 0
3.00000000000001 -5.176495721829328e-15 0
3 -3.128374057997659e-16 0
3.000000000000002 -7.457651656054966e-16 0
3.000000000000043 3.408871681331649e-14 0
2.999999999999508 5.776801847193739e-13 0
3.000000000183641 -1.005713344629958e-10 0
2.999980452844559 4.625116195772668e-06 0
2.999999990456479 4.754927848151958e-10 0
3.000000000041995 -2.840147470084064e-12 0
3.000000000000168 3.598029331927125e-15 0
3.000000000000004 2.832001514274119e-15 0
2.999999999998748 1.934779987058185e-15 0
2.999999999103553 2.060848760374046e-11 0
2.999999868882272 6.867477092659116e-09 0
2.248871138532389 0.2559238436569694 0
2.701478649976489 0.1821825007529337 0
3.035306879622334 -7.279258818320004e-05 0
2.856736308151664 0.08155850965394498 0
2.957597813895011 0.04067649014514265 0
2.99149612674313 0.008067542956893159 0
2.99960649357998 0.002010700776951104 0
3.000001332146263 -1.58125841077688e-07 0
3.00116385497097 -0.000591685110000288 0
3.000481525955154 -0.0005037629674437631 0
3.000932887074205 -0.0008264960051677163 0
3.000035228060333 -0.0001300020361273969 0
3.00018321959945 -0.000430502941835489 0
2.999962156405543 4.676307015949792e-05 0
2.999971519711775 3.255052909980782e-05 0
2.999975754385745 3.441222419696743e-05 0
3.000000000000612 -1.25040781971494e-12 0
2.999999999992238 1.309527402206729e-12 0
2.999994684782453 2.29672701968621e-05 0
2.999997949692828 3.259595888011305e-05 0
2.999991896393848 -2.828807708217288e-07 0
2.999999998225145 5.095465773613309e-10 0
3.00000111689658 -4.976704555916004e-06 0
3.00000031014855 -4.713981578454611e-06 0
2.9999999999959 9.446747080255412e-12 0
3.000158788836447 -4.326354250951279e-06 0
3.000004218829417 2.815778893772616e-05 0
2.99999939876034 -5.717149915337442e-06 0
2.999999860925856 -1.424789015112895e-06 0
3.00000002517191 -6.82321706290949e-07 0
3.044223583853654 -0.0001289916908806055 0
3.000008228014647 1.084066547655525e-05 0
2.999998201100159 -4.19834187391308e-06 0
3.002235106672775 -0.0008645335334678628 0
3.000151991147816 -0.0001580758821768528 0
3.000005008058595 -2.400251485786213e-06 0
2.999998331989028 -1.198848816530432e-06 0
3.000000010087649 6.031056641861027e-07 0
2.999999922102144 3.976646052507477e-07 0
3.000000186871203 7.899881677371346e-07 0
3.000000376956047 4.922145038009056e-07 0
2.999999613338866 7.32895848064923e-07 0
3.000000237771798 -5.893072222608219e-09 0
3.000000432810664 6.371984831553693e-07 0
2.999999960171405 -1.539503877128941e-07 0
3.000000297631856 -1.173153259883319e-07 0
2.999999899951248 -1.086661123772623e-08 0
2.999999972197843 -1.669292887148813e-07 0
2.999999995919692 4.597091425170283e-08 0
2.999999889984299 5.047872037602636e-08 0
3.000000025452337 -1.938574877246479e-09 0
3.000000007436253 2.745533816472505e-08 0
3.00000000172118 -1.072610226992352e-08 0
3.000000023494576 -1.550896360867947e-08 0
2.999999993843627 3.841381412959919e-09 0
2.999999994559897 3.297109162985371e-10 0
3.000000001188375 2.320207682253684e-10 0
2.999999997253188 1.843896880641935e-09 0
3.000000000651993 -5.746276245003253e-10 0
3.000000002264825 -8.926831339282683e-10 0
2.999999999445814 2.582025962821683e-10 0
2.999999999126205 2.636436663712232e-10 0
3.000000000215543 -7.166685333963741e-11 0
3.000000000246676 -6.222889449548549e-11 0
2.999999999944806 1.386231144241816e-11 0
2.999999999938444 1.422955460204612e-11 0
3.000000000010178 -1.958595659782425e-12 0
3.000000000015179 -3.500826258112825e-12 0
2.999999999998656 2.349964286384222e-13 0
2.999999999996014 9.33467530171035e-13 0
3.00000000000015 -5.298659097365301e-14 0
3.000000000001092 -2.52177652047966e-13 0
2.999999999999968 2.325081377117856e-14 0
2.999999999999705 6.479387204947357e-14 0
3.000000000000014 -8.239928590673594e-15 0
3.000000000000079 -1.605369019044479e-14 0
2.999999999999997 3.251166499387037e-15 0
2.999999999999978 3.659230577076392e-15 0
3 -6.857489601665131e-16 0
3.000000000000004 -7.906992428940378e-16 0
2.999999999999999 -6.932515979545026e-16 0
3.000000000000003 -2.725964200672364e-16 0
2.999999999999997 4.077195733895289e-15 0
2.999999999999991 2.744516344716289e-15 0
3.000000000000017 -1.427972413930806e-14 0
2.999999999999988 -9.085184190696771e-15 0
2.999999999999956 3.010642629681965e-14 0
3.000000000000141 1.883924056978044e-14 0
2.999999999999926 -3.163779440024441e-14 0
2.99999999999972 -2.867975059304961e-14 0
3.000000000000554 -3.128525800509822e-14 0
2.999999999999439 3.057308395376358e-14 0
3.000000000000148 2.055586079148553e-13 0
3.000000000003272 -1.932282065349055e-14 0
2.999999999989738 -3.955733529234723e-13 0
3.00000000000499 3.433959078047577e-14 0
3.000000000034485 3.95195741391248e-13 0
2.999999999918591 -5.552887767132731e-13 0
3.000000000035254 -8.62791696638487e-13 0
3.000000000226907 5.248688470531903e-12 0
2.99999999935793 4.764441302000205e-12 0
3.000000000272475 -3.077107165932694e-11 0
3.000000002178989 -1.882102169044986e-11 0
2.999999996774043 1.294656209700373e-10 0
2.999999995156129 6.291283495575178e-11 0
3.000000011142169 -3.045651012427974e-10 0
3.000000014921833 -1.517219917136205e-10 0
2.999999982103995 -1.128003002827453e-09 0
2.999999921376111 1.553672536985593e-10 0
2.999999918604471 1.589421249459361e-08 0
3.053101748294677 0.000102501138910369 0
3.000000425515089 3.038950714606299e-09 0
3.000168348282952 -0.0001452793766635771 0
2.99990562725755 3.632237593562522e-05 0
2.999876505287102 3.548754478177129e-05 0
3.000000954757178 4.460762418223825e-06 0
2.999999997305134 -4.101967782164904e-11 0
3.000000000004985 4.99504564322391e-13 0
3.00000002945496 9.527343791616359e-09 0
3.000000000000018 -8.817354304605353e-14 0
3.000000000000003 7.91654728188404e-16 0
3.000010589663355 7.167827841801456e-07 0
3.000005895514575 -2.288262938420826e-06 0
3.000005660876164 -2.813099066733954e-06 0
3.000000000000333 -9.295193143178862e-14 0
3.000000001388999 -1.016679844805788e-09 0
2.999999999952107 1.808662058794503e-11 0
2.999999948206691 -1.155330186549768e-07 0
2.999999998649652 -8.561553020877085e-08 0
3.000000022750884 -9.243397517789909e-08 0
3.00000080086751 -6.336949752950911e-08 0
2.999999894952771 -2.477185384599884e-08 0
2.999999913798998 -1.600280476184733e-08 0
3.000000823061572 5.239834376197857e-08 0
3.000000002845502 -7.917846746917733e-10 0
3.000000000016565 -3.248763835450385e-12 0
3.000000000000059 -6.563393973386593e-15 0
3.000000000000036 1.436712574290787e-14 0
2.999998690365441 2.290409074676242e-07 0
2.999998523682244 5.100989127793775e-07 0
2.999999999999913 -8.578136050943538e-14 0
2.999999999318515 7.525647341065205e-12 0
2.999999877044239 5.884806983975971e-09 0
2.999995987370516 4.650199780663681e-05 0
2.999999330365118 1.16896856265723e-06 0
3.000000544266978 3.727843264480044e-09 0
2.999999073536309 1.035632243805154e-07 0
3.000000000624004 -2.815203819917486e-09 0
3.000000001622408 -1.682461151613294e-08 0
2.999999995254839 1.486950153897542e-08 0
3.000000019364054 -4.547554062880125e-08 0
2.999999994058594 1.11870380616346e-08 0
2.999999992237898 4.899734631870734e-09 0
3.000000001024745 1.728081585917298e-10 0
2.999999988675869 1.217472779122849e-08 0
3.000000002490546 -2.555310523980519e-09 0
3.000000002651739 -6.091542084337411e-10 0
2.999999999007301 4.478370844019318e-10 0
3.000000002329494 -2.374304132335779e-09 0
1.336621024067307 0.0490742852678507 0
2.999975975262579 -2.311196500505659e-05 0
2.999999999804766 3.627999658169786e-10 0
3.000003736231994 -9.159537858997331e-07 0
3.000006951307795 -1.463784451338421e-05 0
2.999999973031276 9.498737877728821e-08 0
3.003247279164071 -0.0002404486279376316 0
2.999999998423433 9.144918335689414e-10 0
3.000001216196933 1.497183917432459e-09 0
2.999999847447166 -6.004975493033226e-10 0
2.999993980635721 1.277550017503994e-09 0
2.999995002839581 -4.464330042618024e-07 0
2.893200437126477 0.04012146905602323 0
2.999999999783804 3.809921022599462e-09 0
3.000001529047753 7.397079996444429e-08 0
2.999999997753093 4.786039862968546e-10 0
3.000000023952602 -3.588545471003951e-09 0
3.000014469224946 -1.55360256086382e-06 0
2.999998311323478 7.139012018888166e-07 0
3.000000000003523 -1.334615939217081e-14 0
3.000000000054863 4.275190197118056e-11 0
2.999999999998708 -3.167161142658512e-13 0
2.999999999999988 8.27603289650032e-16 0
3.000000000000031 -5.028964554625369e-15 0
2.999999999999479 -2.596981779031173e-13 0
2.999999999998581 -2.095943201883808e-13 0
3.000000000000035 9.735448909357636e-15 0
2.999999999491016 1.170581355102455e-11 0
2.999999999960016 5.549744338035359e-13 0
2.999999999999999 -1.946336682272161e-16 0
2.99999585879835 3.350249608032772e-07 0
2.999999986738633 4.804964499501745e-10 0
2.999999999905508 1.412464718024096e-10 0
2.999999999999915 7.60364093823542e-14 0
2.999999999999982 -3.423631418335214e-15 0
2.999999993026373 -3.578314776394313e-10 0
3.0000000000028 -1.044299201985701e-12 0
3 -1.657167245756213e-13 0
3.000000000038135 1.232517383336196e-12 0
3.000000000000001 -5.340746405354518e-17 0
3.000000000000003 -3.7089479635958e-15 0
3.000000000000151 7.974854537816532e-15 0
2.999999993748959 -1.796427877060126e-10 0
3.000000000000028 2.646327825985878e-14 0
3.000000000000002 1.453285402001053e-15 0
3.00000000000102 -1.645123037319877e-13 0
3.000000000231366 -5.164787135925283e-11 0
3.000000000274887 -6.055770507827134e-13 0
3.000000000021933 6.426351154118738e-13 0
3.000000028778202 -9.158976914941625e-09 0
2.999999889166204 -2.683000714525512e-10 0
2.999999983128819 8.036924190956046e-09 0
3.00000852099011 4.120413502148601e-06 0
3.000066079151205 0.0001256833961018899 0
2.999999994517676 1.72398544975533e-10 0
2.999999975842198 9.883634978250632e-08 0
2.999999999633693 4.736169446423358e-10 0
3.000857073049105 -0.0006841332356437676 0
3.000000111841266 -4.993455990208387e-08 0
3.000000000295151 -2.389128581702164e-10 0
3.000000005966956 -2.857533974313366e-09 0
2.999999999420721 -7.004524374968275e-10 0
3.000016102404097 -1.060188274935361e-07 0
3.000000528542996 -9.778748762950774e-09 0
2.999999862370355 6.963779825814665e-09 0
3.000000001316171 -2.330355987524562e-09 0
3.00000000002932 3.97822414912582e-11 0
3.000000063442792 -6.826430350058513e-08 0
3.000053043091678 -8.469788245510003e-07 0
2.999999999920645 4.36044675467691e-12 0
3.000003229685593 -2.496884110764728e-06 0
3.000009058796713 -1.691787762266004e-06 0
2.999994210490723 1.392943645306334e-06 0
3.000000156377906 -1.513550223680156e-07 0
2.999994721139228 4.812567046374992e-07 0
3.000051842099195 8.039595126860305e-07 0
3.045494881642861 0.000353948777820937 0
3.032430821421395 -0.0004222036341633247 0
2.99999889620145 5.962195581451346e-07 0
2.999999999988614 3.500909115314326e-11 0
3.000014139179079 2.219806873935026e-05 0
2.999926525396296 -1.307058434449485e-05 0
2.999980310612163 5.65724956397107e-05 0
3.000020706913619 -7.724378661807262e-07 0
3.000000101554136 5.979587826647064e-07 0
2.780698126693902 0.06925778934419555 0
3.00000018016337 -8.466645265132002e-07 0
3.000000078868995 -3.70237229408795e-08 0
2.999999969861809 7.2217923535286e-09 0
2.999999965190978 1.066577320154769e-08 0
3.000001657060465 -3.002298621439594e-07 0
3.000000000026978 -1.687501778098937e-11 0
2.999892243579101 -0.0001947979126861295 0
2.999892198070579 7.885737431448207e-05 0
3.000256311556798 -0.0006214644046832768 0
3.000012179169462 4.804496095312756e-06 0
3.000053109242632 -2.676061724683599e-07 0
2.999999999992078 -4.415303936238911e-13 0
2.999999999846792 7.269942533853491e-11 0
2.99999990944805 1.384125666995561e-08 0
2.999999992685687 -1.444690934759932e-09 0
3.000000028032193 -1.89077986088057e-09 0
3.000000006757717 -9.35611046389111e-11 0
2.999999993423045 3.694962610252681e-10 0
2.999999998287897 7.763929466698822e-11 0
3.000000002277071 -7.00708961404662e-11 0
2.999999999797252 -2.661589050293935e-11 0
2.99999999940684 1.935800040242177e-11 0
3.000000000270885 1.958368938653492e-12 0
3.000000000022784 -5.250353587403182e-12 0
2.99999999993491 3.684091610830492e-12 0
3.000000000035897 -2.255370087048733e-13 0
2.999999999998322 -1.65966874117032e-12 0
2.999999999987224 9.523617780166827e-13 0
3.000000000005522 8.704295827885068e-14 0
3.000000000002096 -5.174842928111128e-13 0
2.999999999998101 2.231404201136364e-13 0
2.999999999999893 2.17669331412221e-13 0
3.000000000000409 -1.468360595975396e-13 0
2.999999999999964 -9.193447970748647e-14 0
2.999999999999923 7.053174054983257e-14 0
3.000000000000024 3.335664575313767e-14 0
3.000000000000014 -3.326647424905397e-14 0
2.999999999999985 -5.628949047734174e-15 0
2.999999999999999 1.462278753868497e-14 0
3.000000000000008 -2.919044349976385e-15 0
3.000000000000001 -5.346732976204985e-15 0
2.999999999999998 3.635600975393526e-15 0
3 1.304526014391389e-15 0
3 -1.463351859031562e-15 0
3 4.120018863492073e-16 0
3.000000000000007 -1.533918548483054e-15 0
3.000000000000004 -1.920521103490026e-15 0
2.999999999999982 6.686895175057917e-15 0
2.999999999999993 3.888907020458959e-15 0
3.000000000000032 -1.630262065439341e-14 0
2.999999999999998 -2.513314763832803e-15 0
2.999999999999992 1.798548511157661e-14 0
3.000000000000045 -2.008153619629981e-14 0
2.99999999999984 5.354963267821931e-14 0
2.999999999999904 8.210291238634851e-14 0
3.000000000000506 -3.352519397805951e-13 0
2.999999999999963 -1.38464521576924e-13 0
2.999999999999629 8.00432182720905e-13 0
3.000000000000593 -9.138348635341715e-14 0
2.999999999998019 -3.722420609214635e-13 0
2.999999999999204 1.016785424786886e-12 0
3.000000000005698 -3.850335036087405e-12 0
2.999999999997748 -1.684038876742554e-12 0
3.000000000002436 1.126650148595357e-11 0
3.000000000007339 -2.203753081808445e-12 0
2.999999999964264 -1.290065129165897e-12 0
3.00000000000618 1.130086560160817e-11 0
3.000000000016507 -5.421392582466968e-11 0
2.999999999953795 -3.627919175236487e-12 0
3.000000000192958 8.038745856385104e-11 0
3.000000000002937 -4.608974161222021e-11 0
2.999999999766727 1.558766371171728e-10 0
3.000000000205068 4.987635398718806e-11 0
2.99999999926513 -4.109305426049196e-10 0
2.999999999883743 9.096199410572793e-11 0
3.000000001268031 -4.906744790651612e-11 0
2.999999999406833 -2.760450780497151e-10 0
3.000000001624967 1.527029959939347e-09 0
3.000000000479605 -1.283080544592043e-10 0
2.999999996471508 -7.743637428972372e-10 0
3.000000001497173 1.100942549404241e-09 0
2.99999999510396 -5.441831214146224e-09 0
3.000000000309243 9.341008466918812e-10 0
3.00000000007895 -3.134191774203068e-09 0
2.999999998164246 -1.582310812587059e-09 0
3.00001860101104 2.674224479720181e-07 0
3.000018405765477 -3.328087990804275e-06 0
3.000000001898049 2.826155452730422e-09 0
3.000000004627685 -3.28165585322025e-09 0
2.999993764098797 3.363184608478195e-07 0
3.000102516851856 -1.961583366081666e-05 0
2.999802741011972 5.827503784555659e-06 0
3.000000004955516 5.460544541435023e-09 0
2.999999997616188 -3.472415113429381e-09 0
3.000000005424071 1.977105037599105e-08 0
3.000000144674884 -2.727470979248703e-08 0
2.999663668212095 3.377863860929903e-07 0
3.000022459263497 -6.235248924816926e-06 0
2.999185722879037 -2.411933811233848e-05 0
2.999801976602135 7.751958879086624e-08 0
3.000058452370445 3.455090328113258e-07 0
3.000035964189124 2.543850219135655e-06 0
3.000014953819292 -5.814568084502158e-07 0
3.000059070671083 -1.585076644218911e-06 0
2.999994638818264 -7.943716878493232e-07 0
3.000026919702076 -2.254717466869836e-07 0
2.999995079051383 3.944020941925568e-08 0
3.000000197770748 2.638518501502241e-07 0
2.999998979526743 1.52176851194288e-07 0
3.00000060294358 1.770277600616392e-08 0
2.999999608875401 3.5954172915378e-07 0
2.999999113187326 3.582700073615543e-07 0
3.000000004550863 1.532040540146499e-10 0
2.999999999729376 -2.973112991219891e-10 0
2.999999832231736 7.547367077664865e-09 0
2.999999999999983 2.785763571025632e-14 0
2.62760424327288 -0.00431215890949186 0
3.000000531520143 -8.330241113482015e-10 0
2.999999969219087 -5.626379188960477e-09 0
2.999999878298853 -5.992830202564735e-09 0
2.999999979167061 6.388083108407455e-10 0
3.00000002381819 1.702073835975706e-09 0
3.000000009790259 7.050048630017318e-11 0