<?xml version="1.0"?>
<VTKFile type="UnstructuredGrid">
  <UnstructuredGrid>
  <Piece NumberOfPoints="1224"  NumberOfCells="2290">
    <Points>
      <DataArray type="Float64" NumberOfComponents="3" format="ascii">
0 0 0
0.6 0 0
0.6 0.2 0
3 0.2 0
3 1 0
0 1 0
0.05454545454535233 0 0
0.1090909090906768 0 0
0.1636363636359771 0 0
0.2181818181812728 0 0
0.2727272727265793 0 0
0.3272727272720317 0 0
0.3818181818176247 0 0
0.4363636363632168 0 0
0.4909090909088285 0 0
0.5454545454544089 0 0
0.6 0.03999999999991203 0
0.6 0.07999999999979179 0
0.6 0.1199999999997886 0
0.6 0.1599999999998948 0
0.6510638297871261 0.2 0
0.7021276595742618 0.2 0
0.7531914893613819 0.2 0
0.8042553191485237 0.2 0
0.8553191489356438 0.2 0
0.9063829787228289 0.2 0
0.957446808509926 0.2 0
1.008510638297009 0.2 0
1.059574468084092 0.2 0
1.110638297871174 0.2 0
1.161702127658257 0.2 0
1.21276595744534 0.2 0
1.263829787232422 0.2 0
1.314893617019505 0.2 0
1.365957446806588 0.2 0
1.417021276593671 0.2 0
1.468085106380754 0.2 0
1.519148936167923 0.2 0
1.570212765955006 0.2 0
1.621276595742088 0.2 0
1.672340425529171 0.2 0
1.723404255316254 0.2 0
1.774468085103337 0.2 0
1.825531914890624 0.2 0
1.876595744677951 0.2 0
1.927659574465349 0.2 0
1.978723404252714 0.2 0
2.029787234040074 0.2 0
2.080851063827477 0.2 0
2.131914893614798 0.2 0
2.182978723402204 0.2 0
2.234042553189523 0.2 0
2.285106382976928 0.2 0
2.336170212764247 0.2 0
2.387234042551653 0.2 0
2.438297872338975 0.2 0
2.489361702126377 0.2 0
2.540425531913739 0.2 0
2.591489361701102 0.2 0
2.642553191488421 0.2 0
2.693617021275827 0.2 0
2.744680851063146 0.2 0
2.795744680850551 0.2 0
2.84680851063787 0.2 0
2.897872340425276 0.2 0
2.948936170212618 0.2 0
3 0.2533333333332341 0
3 0.3066666666664725 0
3 0.3599999999996274 0
3 0.413333333332804 0
3 0.4666666666659806 0
3 0.5199999999991571 0
3 0.5733333333323336 0
3 0.6266666666656895 0
3 0.6799999999991551 0
3 0.7333333333326146 0
3 0.7866666666660802 0
3 0.8399999999995775 0
3 0.8933333333330373 0
3 0.9466666666664969 0
2.949152542373491 1 0
2.898305084746983 1 0
2.847457627120474 1 0
2.796610169493702 1 0
2.745762711866469 1 0
2.694915254239208 1 0
2.644067796611963 1 0
2.593220338985156 1 0
2.542372881358647 1 0
2.491525423732018 1 0
2.44067796610481 1 0
2.389830508477549 1 0
2.338983050850287 1 0
2.288135593223026 1 0
2.237288135595765 1 0
2.186440677968504 1 0
2.135593220341243 1 0
2.084745762713982 1 0
2.033898305086721 1 0
1.983050847459614 1 0
1.932203389832729 1 0
1.881355932205844 1 0
1.830508474578958 1 0
1.779661016952073 1 0
1.728813559325189 1 0
1.677966101698303 1 0
1.627118644071418 1 0
1.576271186444533 1 0
1.525423728817648 1 0
1.474576271190575 1 0
1.423728813563314 1 0
1.372881355936053 1 0
1.322033898308791 1 0
1.27118644068153 1 0
1.220338983054269 1 0
1.169491525427008 1 0
1.118644067799747 1 0
1.067796610172485 1 0
1.016949152545224 1 0
0.9661016949179628 1 0
0.9152542372907018 1 0
0.8644067796634407 1 0
0.8135593220361792 1 0
0.7627118644089181 1 0
0.7118644067816566 1 0
0.661016949154396 1 0
0.6101694915271345 1 0
0.5593220338998739 1 0
0.5084745762726124 1 0
0.4576271186453518 1 0
0.4067796610180903 1 0
0.3559322033908292 1 0
0.3050847457635677 1 0
0.2542372881363066 1 0
0.2033898305090456 1 0
0.1525423728817841 1 0
0.101694915254523 1 0
0.05084745762726151 1 0
0 0.9473684210524125 0
0 0.8947368421048248 0
0 0.8421052631576025 0
0 0.7894736842105994 0
0 0.7368421052635962 0
0 0.6842105263165927 0
0 0.6315789473695894 0
0 0.5789473684225861 0
0 0.5263157894755828 0
0 0.4736842105282874 0
0 0.4210526315806998 0
0 0.3684210526331123 0
0 0.3157894736855248 0
0 0.2631578947379374 0
0 0.21052631579035 0
0 0.1578947368427625 0
0 0.1052631578951749 0
0 0.05263157894758741 0
0.4374856279758046 0.955462795473483 0
0.625531914893563 0.2394317949808221 0
0.7891616249544176 0.9557759867023439 0
2.570562443351098 0.9559758769411787 0
2.364406779663917 0.9559648099769389 0
2.161016949154874 0.9559648099769389 0
1.957627118646171 0.9559648099772646 0
1.756856606547665 0.9560078743553572 0
1.553415402058453 0.9561420672712786 0
1.347457627122422 0.95627738856474 0
1.144067796613377 0.9563034567995272 0
0.04146670856173688 0.5498854761242812 0
0.9828861012149002 0.2442383967812095 0
2.465390809289578 0.2421522008426663 0
2.259572257543314 0.243586373321511 0
2.055319178697841 0.24363095694403 0
1.851066099915384 0.2436741865527954 0
1.646810778591931 0.2437170671454607 0
1.442550972205278 0.2437587738062726 0
1.238275543433999 0.2442249255777628 0
0.5808319854219957 0.2417757800606361 0
0.6039807146029165 0.2785115072887754 0
2.951522810440164 0.5995349944823752 0
0.5591131416216563 0.2791940688436214 0
0.5817690965011905 0.3180386921514113 0
0.5363223429032008 0.3181181454258206 0
0.5590799034518541 0.3577335228902347 0
2.671507320584846 0.2416532643303031 0
0.5129751095268966 0.3576683284772433 0
0.5360042291720796 0.3976917483469583 0
0.5824744072527975 0.3977458985417416 0
0.5593202208963615 0.4382323507424581 0
0.6062221806132498 0.4382172989803606 0
0.5831398502988122 0.4790536480492864 0
0.630245509211025 0.4792447281197085 0
0.5373735766893435 0.4817209888486334 0
0.2780994584865757 0.9660670791366374 0
0.9407829849899363 0.9559852449915113 0
0.6069171020766708 0.5203953730037822 0
0.6544691944766102 0.5205851219036783 0
2.724115018794794 0.9563165682871465 0
0.04341732373162228 0.2894490564426765 0
0.6304562046384772 0.5622881188475496 0
0.6786259291441818 0.5621981517123112 0
0.03938236249337418 0.7091098825652095 0
0.2999999999993055 0.04723774929726795 0
0.7024556039582556 0.5200372393771872 0
0.726826368578132 0.562505099575485 0
0.6545296629344706 0.6041261864689124 0
0.6061411599039735 0.6041581669226386 0
2.954333097254252 0.4393531299125908 0
0.7512905139641642 0.5199435586712576 0
0.7757938242112172 0.5624873891767795 0
0.4902278874550028 0.3174350849704655 0
0.4661669324669476 0.3576870257641042 0
0.8003371868304782 0.5195844107098163 0
0.8251782158071723 0.5621174250913318 0
0.6300572939290072 0.6460588488486728 0
0.581677101888915 0.6462390077748084 0
0.7994632498085218 0.6067218912904607 0
0.850068894442807 0.6047738158182728 0
0.8747482025846163 0.5617915498272615 0
0.8998102571129438 0.6045430073239006 0
0.924588798996443 0.5614360364847856 0
0.9497125983499418 0.6046345614192383 0
0.9744389394813738 0.5613114208485291 0
0.9997656958801404 0.604758732930365 0
1.024028015453996 0.5597386087889248 0
1.050046148741532 0.6042836632406788 0
1.075213347289947 0.5607219500906248 0
1.100604808237692 0.6043040651294929 0
1.125727120818654 0.5598592244124957 0
1.151165990249003 0.6040638744783449 0
1.176319565514503 0.5595216793632644 0
1.201793840633129 0.6038781229769293 0
1.226960854257978 0.5600604284234054 0
1.252470704079807 0.6038664424080111 0
1.277198987313166 0.55874807111347 0
1.303148970446812 0.6035341865995129 0
1.328130525802366 0.5586520846649797 0
1.353966012915828 0.6034054551655909 0
1.379205474149696 0.558835304845746 0
1.404820923589671 0.6032503772964327 0
1.430092956912838 0.5587079795953892 0
1.455686300628245 0.6030926920218221 0
1.480963489515269 0.5580480170404921 0
1.506562983627252 0.6028436706904448 0
1.531847734917255 0.5577680566445021 0
1.557453558526421 0.6026435181305781 0
1.582745756648754 0.5575726351194972 0
1.608358176126191 0.6024617369905624 0
1.633656322435163 0.5573842056888257 0
1.659277805706528 0.6022873884346892 0
1.684577462424181 0.5572075399874397 0
1.710203504633815 0.6021111834258887 0
1.735506494091908 0.5570246051384745 0
1.761134606493805 0.6019307913070558 0
1.786441498808711 0.5568475628142857 0
1.812072359676459 0.6017522495250318 0
1.837381834584306 0.5566653603575672 0
1.863017119880456 0.601574020443024 0
1.888326681794851 0.5564884669211013 0
1.913963858781491 0.601395113412113 0
1.939274704592935 0.5563067813822595 0
1.964908406083961 0.6012129143420911 0
1.990224566339525 0.5561292537946573 0
2.015859329864652 0.601032757987411 0
2.041177190815608 0.5559477304122714 0
2.066818109147928 0.600855564813206 0
2.09213259478423 0.5557710179709322 0
2.117774443326183 0.6006760179252703 0
2.143088896138059 0.5555900146741853 0
2.168729305797513 0.6004921726308964 0
2.194045774061603 0.5554125217101814 0
2.219686577151481 0.6003111949874665 0
2.245003702950199 0.5552312296013228 0
2.270641766736839 0.6001298880828497 0
2.295962173634055 0.5550546947866846 0
2.321601310982481 0.599950595338254 0
2.346923922781879 0.5548708301001631 0
2.372568004594504 0.5997713467128002 0
2.397895756972162 0.5547000681173012 0
2.423546697517365 0.5996004731097838 0
2.448884659670238 0.5545095609010697 0
2.474538141419978 0.5994220729206983 0
2.499902931415869 0.5543494429014709 0
2.525546234724433 0.5993228147833797 0
2.550973655834774 0.5541346321759457 0
2.576685338327378 0.5992395038842441 0
2.602182482443039 0.5540180644105763 0
2.958944511946492 0.7598964409357507 0
2.628014314012249 0.5990918128353608 0
0.4429170888396284 0.3159793431387367 0
0.4184631156771032 0.357715436029677 0
0.3946070818022522 0.3157219358498637 0
0.3697276561976696 0.3576135465858128 0
2.449044355814981 0.643990885448769 0
2.24531935830005 0.6444881680698032 0
1.024857369602972 0.6487487015028032 0
2.041498164113345 0.6452136474256573 0
1.837701628146142 0.6459229900926835 0
0.3455853078837237 0.3150377509381005 0
0.3204780172155196 0.3574251905568473 0
0.3449438693484468 0.4002519798591844 0
1.633970683060678 0.6466170330762969 0
1.227333380683899 0.6479317947648683 0
1.430444030483603 0.6473399689389928 0
0.875196942148915 0.6483605753517908 0
0.6057010339261732 0.6883083412871458 0
0.5571396249147901 0.6885103796531055 0
2.653543252321963 0.5527758280498023 0
1.099471497978971 0.5148848291986879 0
2.602427017093663 0.6438096025956825 0
2.653851606946175 0.6437140715169269 0
1.353138019780104 0.5138574114565649 0
1.556762689169365 0.5115839513085039 0
1.760509743411542 0.5109012431757174 0
1.964341412665395 0.510388685431229 0
0.2953909602266698 0.4001745965167012 0
[...]
    <PointData>
      <DataArray type="Float64" NumberOfComponents="3" Name="Velocity" format="ascii">
3.000000051271758 0 0
0 0 0
0 0 0
3.229250335619462 0 0
3.229539850024469 0 0
3.000000000001589 0 0
3.000000023571124 0 0
2.9999994269859 0 0
3.000003203640992 0 0
2.999999106090355 0 0
2.999880942915277 0 0
3.000513037678351 0 0
3.006797101707802 0 0
2.948881381259514 0 0
2.335255944990929 0 0
0.9038576489069121 0 0
0 0.0543208570011713 0
0 0.07846777952247926 0
0 0.1798158628330346 0
0 0.3474016396884622 0
1.590578404009464 0 0
2.269336849638496 0 0
2.626129970544173 0 0
2.835126961544027 0 0
2.936501203461575 0 0
2.981013152666497 0 0
2.995708186216847 0 0
2.999540065063898 0 0
3.000253263747497 0 0
3.000081789169109 0 0
3.000012142526926 0 0
2.999990195411792 0 0
2.999999703763775 0 0
3.00000047436661 0 0
3.00000008388262 0 0
2.999999915845429 0 0
3.000000021632188 0 0
2.999999997420153 0 0
2.999999999943338 0 0
3.000000000103976 0 0
2.999999999968974 0 0
3.000000000006235 0 0
2.999999999998914 0 0
3.000000000000387 0 0
2.999999999999757 0 0
2.999999999999575 0 0
3.000000000002067 0 0
2.999999999996309 0 0
3.000000000001834 0 0
3.000000000004628 0 0
2.999999999999463 0 0
2.999999999964692 0 0
3.000000000021237 0 0
3.000000000258413 0 0
2.999999999401281 0 0
3.000000000440341 0 0
2.999999998486799 0 0
3.000000020870984 0 0
2.999999899532944 0 0
2.999999855859981 0 0
3.000003269858794 0 0
2.999998861618981 0 0
2.999906948105437 0 0
2.999990420699393 0 0
3.00465099094634 0 0
3.048521324430562 0 0
3.230261894352011 0.001219895238949181 0
3.21983232962509 0.0005330838299529691 0
3.220989642592522 0.0005180376914856831 0
3.221053782539847 -7.135398259528115e-05 0
3.223695206106823 -0.0003590648128001435 0
3.225754363210621 -0.000404137167961888 0
3.223439793205258 -8.335482991554276e-05 0
3.222624622989258 -0.0003345941866058126 0
3.22633960964394 6.574698568183687e-05 0
3.224417153185263 0.0001573343965148953 0
3.225519875372655 -1.804168506058575e-05 0
3.222063394849278 -0.0003638935262598832 0
3.219761142466017 -0.001427735486543906 0
3.230886661792507 -0.001076388764154064 0
3.04410362668648 0 0
3.005220528765757 0 0
3.000131420982023 0 0
2.999930279895979 0 0
2.999995931526367 0 0
3.000002414215432 0 0
3.000000000819651 0 0
2.999999902650176 0 0
3.000000016225918 0 0
2.99999999896274 0 0
3.000000000436641 0 0
2.999999999492366 0 0
3.000000000143865 0 0
3.000000000049805 0 0
2.999999999961747 0 0
3.000000000009544 0 0
2.999999999996034 0 0
3.000000000002797 0 0
2.999999999999619 0 0
2.999999999998674 0 0
3.000000000001525 0 0
2.99999999999903 0 0
3.000000000000417 0 0
2.999999999999883 0 0
3.000000000000016 0 0
2.999999999999989 0 0
3.000000000000021 0 0
3.000000000000025 0 0
2.99999999999986 0 0
3.000000000000141 0 0
3.000000000000415 0 0
2.999999999998873 0 0
2.999999999999376 0 0
3.000000000004596 0 0
3.000000000000084 0 0
2.99999999998601 0 0
2.999999999995726 0 0
3.000000000039479 0 0
3.000000000038056 0 0
2.999999999960067 0 0
2.999999999891968 0 0
2.999999999902653 0 0
2.999999999944275 0 0
2.999999999964104 0 0
2.99999999995885 0 0
2.999999999962607 0 0
3.000000000000429 0 0
3.000000000014826 0 0
2.999999999971108 0 0
2.999999999988368 0 0
3.000000000024524 0 0
2.999999999987585 0 0
3.000000000007895 0 0
2.99999999999806 0 0
2.999999999999273 0 0
3.000000000001703 0 0
2.999999999999114 0 0
3.000000000000813 0 0
3.000000000004256 0 0
3.0000000000008 0 0
2.999999999987669 0 0
3.000000000040111 0 0
3.000000000059151 0 0
3.000000000154307 0 0
3.000000000039588 0 0
2.99999999929048 0 0
2.999999999701364 0 0
3.000000002077742 0 0
2.999999998877914 0 0
2.999999993266222 0 0
2.999999995314629 0 0
2.99999998885576 0 0
2.99999997983664 0 0
2.999999988199602 0 0
3.000000002576376 0 0
3.00000001982333 0 0
2.999999999975992 -4.856200249520146e-11 0
1.627030035484506 0.4232254203451714 0
3.000000000137959 -4.40252322946639e-10 0
2.99999998510911 2.477996050830694e-09 0
3.000000000040164 -7.541613347873997e-13 0
2.999999999993983 -1.314014464571079e-13 0
2.999999999998581 -3.363712917345676e-13 0
3.000000000000111 -1.029134506210708e-13 0
3.000000000000005 -7.971016121014909e-16 0
3.000000000003113 -1.316215824970774e-13 0
3.00000000003317 8.287105118209754e-13 0
3.000000000634572 -1.364304498297939e-10 0
2.998951432069248 0.0005196893023834953 0
2.999999996642043 1.27643281523319e-10 0
3.000000000039306 -4.55946038028309e-12 0
3.000000000004034 -2.20507493472388e-13 0
2.999999999999198 2.946981347105484e-13 0
2.999999999842148 5.546614725269524e-12 0
2.999999986677254 -2.428355814708009e-10 0
2.999996194653887 4.196692274980279e-07 0
1.764424837679178 0.4953318555047601 0
2.309731226371607 0.4308779272817314 0
3.060604660135166 -0.000164075142592722 0
2.499514817135268 0.2835739706104521 0
2.739993563380631 0.2092257472722485 0
2.870329512939665 0.08837380895721367 0
2.936920387789051 0.05746292213443221 0
3.000001089085821 5.443051045351979e-08 0
2.98073935087267 0.01556794808478723 0
2.99108687100787 0.009316793253663374 0
2.975303475505645 0.02899374254181687 0
2.996884101015384 0.004204790574801548 0
2.992199866420885 0.01168113360323956 0
2.999238286298316 0.001385779302869417 0
2.998161776780123 0.003558829688933732 0
2.999906026653245 0.0002440618743505794 0
2.999999999992027 5.25409564162275e-12 0
3.00000000014963 1.421421659007812e-10 0
2.999922415302402 0.0002521433342937677 0
2.999736343100757 0.0006821572030679462 0
3.000000963046576 5.55714078352499e-07 0
2.999999997723374 -8.930292233357343e-10 0
3.000025911709121 -2.906288636078014e-05 0
2.99999952544202 4.67368699225479e-06 0
2.999999999960231 4.524540448258597e-11 0
2.999860236147962 -1.340575123298978e-06 0
2.999483496437314 0.001534360745414423 0
2.999952759897691 0.0001264319695171686 0
3.000013287699822 -3.512742640740052e-05 0
3.000007438611385 -1.809279145032933e-05 0
3.071200549638937 -0.0002616720819592634 0
2.999625666366742 0.001755048687518036 0
2.999962988364064 0.0001222463354334787 0
2.969047558762747 0.01883267715071037 0
2.997691355002537 0.002024210681537343 0
2.999902887084021 0.001185107499164822 0
2.999978269150208 4.711718644344107e-05 0
3.000000455264179 -2.397253379260659e-06 0
2.999999404086352 1.226414625914422e-07 0
2.999994409378105 -3.587656287374559e-05 0
2.999991943397192 -2.493360009562788e-05 0
2.999984237259641 -3.536425800475563e-06 0
2.999994323935326 -1.376520035056422e-05 0
2.999985238145111 -2.522166160137767e-05 0
2.999997702877277 -4.332398882952361e-06 0
2.999988285142893 -1.579823664628753e-05 0
3.000000206206282 3.17336306339057e-07 0
2.999995788486157 -2.09672151393826e-06 0
3.000001248194658 1.094923846814057e-06 0
3.000001112840863 1.884504803229707e-06 0
3.000000695197235 2.59599676591518e-07 0
3.000001515126773 7.027018920408178e-07 0
3.000000001351146 -1.334988039755047e-07 0
3.000000308872774 -2.10335675044775e-07 0
2.999999849342987 -4.934495806035795e-08 0
2.999999848554889 -1.069178679772276e-07 0
2.999999966761242 3.001293614504855e-08 0
2.999999937858554 4.271014685886064e-08 0
3.00000002618193 1.544692737603888e-09 0
3.000000007788034 1.064124155580153e-08 0
3.000000000940751 -6.061619753116869e-09 0
3.000000009259884 -8.066947947777668e-09 0
2.999999997312329 1.783149745962068e-09 0
2.999999997826875 1.201949005848431e-09 0
3.000000000182986 1.009844185909226e-10 0
2.999999999435077 3.347991705270737e-10 0
3.000000000323316 -2.160372420987303e-10 0
3.000000000463016 -2.299962752372049e-10 0
2.999999999829372 9.245559470758238e-11 0
2.999999999836795 8.098587010439318e-11 0
3.000000000048569 -2.693499425575233e-11 0
3.000000000041794 -2.289116780111893e-11 0
2.999999999991106 6.296132279482807e-12 0
2.999999999991847 5.706683997653853e-12 0
3.000000000000552 -1.211054850080097e-12 0
3.000000000001042 -1.340841929681919e-12 0
3.000000000000457 1.842427408871534e-13 0
2.99999999999998 3.140936614788379e-13 0
2.999999999999717 -2.073148956765691e-14 0
3.000000000000073 -6.990969265930446e-14 0
2.99999999999988 2.361080266592482e-15 0
2.999999999999949 -4.459640956005272e-14 0
3.00000000000077 4.136601318198218e-14 0
2.999999999999396 1.952035778822416e-13 0
2.999999999998708 -1.274023652707425e-13 0
3.000000000002196 -4.058016827015537e-13 0
3.000000000000372 1.535499989608608e-13 0
2.999999999996192 6.038377274733439e-13 0
3.000000000003336 6.58275547065508e-15 0
3.000000000002828 -6.114612431997985e-13 0
2.999999999991908 -2.814143392489277e-13 0
3.000000000001503 1.770220532587642e-13 0
3.000000000008813 2.383144780376187e-13 0
2.999999999998896 7.994657880265372e-13 0
2.999999999987641 3.811267576592769e-13 0
2.999999999995601 -1.90516840415539e-12 0
3.000000000045087 -8.65825268745829e-13 0
2.999999999948476 2.337190108638056e-12 0
2.999999999963238 7.037032060736865e-13 0
3.000000000203713 -2.875339636483862e-12 0
2.999999999714171 -4.461090007294134e-13 0
3.000000000008722 4.552574081601258e-12 0
3.000000000768076 -8.164330715812727e-13 0
2.999999998864597 3.753834067013525e-12 0
2.99999999870337 6.31307498587422e-12 0
3.00000000386559 5.74997466394123e-12 0
3.000000008684663 -4.856231656672272e-11 0
2.999999997432162 -7.900333918656353e-10 0
2.999999942295999 -6.660762796958019e-11 0
2.999999887244989 6.297491475012995e-09 0
3.080890232632842 8.754677726504531e-05 0
3.000000039500155 5.148220618694183e-09 0
2.997417923387375 0.001792259605594558 0
3.000161013621921 2.671774440669392e-05 0
3.000458219562919 -0.0001590338594056074 0
3.000074373031725 -3.726866181751319e-05 0
2.999999998804296 -6.274193361578507e-12 0
2.999999999997117 2.666017513317593e-12 0
3.000000577296326 4.522714693912773e-07 0
2.999999999995095 -7.737444697761791e-13 0
3.000000000000468 -3.980917333603819e-14 0
3.000029722834926 -1.477404082701194e-05 0
2.999993113775824 1.578973939874584e-06 0
3.000002404395024 -4.474782972852255e-06 0
2.999999999990299 5.933608319155434e-12 0
3.000000005624533 1.630547463026762e-08 0
3.000000000783741 -2.791087427558657e-10 0
3.000000328421153 -2.390048041065175e-06 0
2.999999629636141 9.267834671935765e-07 0
2.999999833217987 4.921290581427757e-07 0
3.000000710587666 3.487389999404194e-09 0
2.999997914881653 2.814018060194713e-06 0
2.999999896339112 -2.328906680948036e-09 0
3.000000699876083 -7.940635042000455e-09 0
2.999999988827438 1.412201243928446e-08 0
3.000000000321374 -1.343762862129166e-10 0
3.000000000001858 -8.358338991304189e-13 0
2.999999999999145 3.976100031757544e-13 0
2.999997498745829 9.739161749229675e-07 0
2.999997415924285 1.061786490689704e-06 0
3.000000000003478 -1.601019911653769e-12 0
2.999999999709765 3.16573201274874e-12 0
2.99999994055135 1.163124833252941e-09 0
2.998799822712757 0.007457632991741199 0
2.999995117861038 -2.721021056922398e-05 0
3.000000015196637 -9.139739998765752e-09 0
3.000001589380297 3.582062449390796e-09 0
3.000000001364388 4.313244227637798e-08 0
2.999999939884453 2.133766374126165e-07 0
3.000000034065151 -4.021076027476546e-08 0
3.000000008314883 9.69226927053132e-08 0
3.000000018491101 -3.383273537874709e-08 0
3.000000053264973 -4.457063703837202e-08 0
2.999999998695954 -6.602513820216627e-09 0
3.000000014794002 -2.733592026414565e-08 0
2.999999995542359 4.396534023566297e-09 0
2.999999994000976 4.974786421965363e-10 0
3.000000000552097 1.016595156744314e-09 0
2.999999997472099 4.174491540131265e-09 0
0.613282052051217 0.2094291744478461 0
3.000084139662062 0.0001528936855924112 0
3.000000000455821 -1.112502658260984e-09 0
2.999989744306909 3.154915888678493e-06 0
2.999890564732632 1.946227395432344e-05 0
2.999999796567009 2.264337261898479e-07 0
2.916046461103136 0.03954384154627907 0
3.000000001691539 -1.093644460249193e-09 0
3.000000639321107 -1.463802210673414e-08 0
2.999999882990027 1.430725226206182e-09 0
3.000000999676588 8.486238179120427e-09 0
2.999995578321375 3.596217949895339e-07 0
2.532124125709335 0.1504788057024204 0
3.00000001198927 -3.259118284417895e-08 0
3.000005923976313 -1.839001477175831e-07 0
3.000000001806501 -3.646450625731605e-11 0
3.000000012977336 -2.960128397264465e-09 0
2.999983038639103 4.203743831055048e-07 0
2.999990606311463 3.203572961745694e-06 0
3.000000000010812 9.837197130497379e-12 0
3.000000000122474 -4.406939236876524e-10 0
2.999999999996861 3.156913536802321e-13 0
3.000000000000002 -6.531877203159655e-14 0
3.00000000000063 -8.486909742814854e-14 0
2.999999999898561 7.501721373881758e-11 0
2.999999999998615 3.854723153851704e-13 0
2.999999999999236 3.349471837351648e-13 0
2.999999999928806 -6.667500398798996e-12 0
2.999999997343375 1.084415533384821e-10 0
2.999999999989682 2.740377190148545e-13 0
3.000163662489079 -4.592018627847228e-05 0
3.000000274408864 -1.211610495449586e-08 0
2.999999993423676 -1.747162938825573e-09 0
2.999999999995918 5.892379130901253e-13 0
2.999999999999438 8.5190975912296e-14 0
2.999999997678485 -1.035099531076198e-10 0
2.99999999989858 -2.414533132200074e-11 0
2.999999999989503 -5.896990434791554e-13 0
3.000000000021608 3.058466162922189e-12 0
3.000000000000038 -1.127304899282065e-14 0
3.000000000000239 -3.709478419070466e-13 0
2.999999999997017 -6.433351957328741e-13 0
2.999999879200073 -8.411690888711343e-08 0
3.000000000002875 -2.673917839587156e-13 0
2.999999999999911 8.091204471336626e-14 0
3.000000000028927 -1.276156983266219e-11 0
2.99999999886772 8.854008939068923e-10 0
3.000000000207051 -3.31755943970349e-13 0
3.000000000045664 -3.06942283979683e-13 0
3.000000748967524 -3.177781093390589e-07 0
2.999999982522064 -3.825452937475317e-09 0
3.000000053016231 -5.430661604157117e-08 0
2.999964916109731 -1.62150716668354e-05 0
3.006025134578794 -0.0005457828827866908 0
2.999999998570648 6.090194430435015e-11 0
3.00000006156245 4.622483094623396e-08 0
3.000000001139659 -1.121417991807566e-09 0
2.957067566886583 0.05937939502221591 0
3.000000145377848 -5.283796045148575e-08 0
2.999999999671631 4.418771338676565e-10 0
2.999999992717091 5.620422708239988e-09 0
3.000000001277417 5.051079842873744e-10 0
2.999977537739107 4.073597668189679e-07 0
2.999999995160166 2.795209804447653e-09 0
2.999999950428361 1.453723668049269e-09 0
2.999999996147326 3.144788072571239e-09 0
2.999999999944758 2.335209614011849e-10 0
2.999999766377329 4.774220452156491e-07 0
2.999950795335815 1.299497788940649e-06 0
3.000000000138046 1.198905122550638e-10 0
3.000000987754458 -4.691312313474169e-06 0
2.999958206302948 7.573203299137339e-06 0
2.999995237049339 1.856874037223264e-06 0
3.000001527451905 -4.106100352565197e-07 0
2.999996227724309 -1.119407183978599e-07 0
2.999954518620746 -4.409733678098847e-07 0
3.071700768156041 0.0008816109336662795 0
3.056893700880066 -0.0009225095217890618 0
2.999997882167637 1.231789762824618e-06 0
2.999999999948846 -7.657341232661537e-11 0
2.999992528976399 0.00436437240409574 0
2.997401362091678 0.01907198367426161 0
3.000445234129619 0.009323576848240806 0
2.999973353478706 9.429085971402154e-07 0
3.000002233737041 -7.169344984090035e-06 0
2.296591261299605 0.2764403574635856 0
2.999997913891125 -1.485635694668424e-06 0
3.000000093977902 -3.268062831404748e-08 0
2.999999996394533 -3.693816883636282e-09 0
2.999999990552479 -6.182309968692252e-09 0
3.000002044824651 -5.113419424474339e-07 0
2.999999999934981 6.486454776545094e-11 0
2.995222145808123 0.03131939123070326 0
3.000529617213858 0.01427313547651756 0
2.98130123891172 0.05781150835345456 0
2.999982108398811 -7.21055693935137e-07 0
2.999944541966168 9.381851825602724e-07 0
3.000000000039768 -2.423597285121504e-11 0
3.000000000126571 -1.570950865096693e-10 0
2.999999895803392 4.173958103542233e-09 0
2.999999999528032 1.038655838453184e-10 0
3.000000009308073 -3.629676278182256e-10 0
3.000000002959165 -1.770916547121428e-10 0
2.999999998528203 4.756061478699638e-11 0
2.999999999106151 3.456437340985589e-11 0
3.000000000795124 -2.079566607345084e-12 0
2.999999999888861 -1.724498827917546e-11 0
2.999999999750046 -2.116348775117258e-12 0
3.000000000191494 1.013984100535717e-11 0
2.999999999935649 -6.677569787544544e-12 0
2.999999999974304 8.238991332106249e-12 0
3.000000000059985 4.84215263287611e-13 0
2.999999999980432 -6.710200138913568e-12 0
2.999999999980725 2.227024145538881e-12 0
3.00000000001408 1.36646103429897e-13 0
3.000000000006874 -3.791284527258734e-13 0
2.99999999998917 1.211764378830897e-12 0
2.999999999998888 -3.469575700617766e-13 0
3.00000000000809 -2.648115969455548e-13 0
2.999999999996733 -2.327686059320786e-13 0
2.999999999996255 -6.893640217434487e-14 0
3.000000000004141 5.287241527862181e-13 0
3.000000000000532 -1.922841820218481e-13 0
2.999999999997338 -2.460845951916301e-13 0
3.000000000000546 3.549196211080048e-13 0
3.000000000001043 -1.071495639552007e-13 0
2.999999999999571 -2.84926160836347e-13 0
2.999999999999815 2.332732775135131e-13 0
3.000000000000124 1.293387583896389e-13 0
2.999999999999909 -1.608798069130284e-13 0
3.000000000000008 -8.701662546484284e-15 0
3.000000000000154 2.194883014618468e-14 0
2.999999999999911 -2.808189097857223e-14 0
3.000000000000039 3.362480938670176e-14 0
3.000000000000338 -4.633436705929289e-14 0
2.999999999999076 2.537394196392596e-13 0
2.99999999999967 1.822246643731727e-13 0
3.000000000001189 -9.773648633153143e-13 0
2.99999999999798 7.205607794143559e-15 0
3.000000000006778 7.821299779770054e-13 0
3.000000000007855 -1.021660051148244e-12 0
2.999999999970283 3.4348674353156e-12 0
2.999999999991659 2.078471206369575e-12 0
3.000000000035092 -1.033251797189646e-11 0
2.999999999984394 -8.516102646797515e-13 0
3.000000000062656 8.70807276863347e-12 0
3.000000000065337 -3.946604201270364e-12 0
2.999999999708542 8.281782206482404e-12 0
2.999999999949447 1.034818977702578e-11 0
3.000000000304589 -5.764945186793421e-11 0
2.999999999780806 -2.299968979468657e-11 0
3.000000000836701 1.929563799099058e-10 0
3.000000000481878 5.042623204295578e-11 0
2.999999997590422 -3.70089598985203e-10 0
3.000000000444993 9.978489651929148e-11 0
2.999999998205958 -6.920331847993366e-10 0
2.999999998318512 -5.055640241658785e-10 0
3.000000007276004 3.18306024703869e-09 0
2.999999997980503 -2.148850292008279e-10 0
3.000000012530287 4.869868088698901e-09 0
3.000000003324312 3.335248872108922e-09 0
2.999999999959416 -9.051180520616103e-09 0
3.00000000944892 5.73009379370854e-09 0
2.999999976803954 -3.439875575124465e-08 0
3.000000008955686 -5.040334592611857e-10 0
2.999999952634322 -5.697966694897509e-08 0
3.000000001178384 -1.711467505607622e-08 0
2.99999994888196 -5.262052806666254e-08 0
2.999999997302215 -3.356034791141255e-08 0
2.999999959666805 -6.168899424319551e-09 0
3.000000000224765 -3.905660462552246e-08 0
2.99997628364018 -2.402930501979442e-07 0
2.999977929814243 -3.749521917967656e-06 0
2.999999988894782 4.890629028667161e-09 0
2.999999999373815 2.330990422388526e-09 0
2.999959814003389 7.585145844506004e-06 0
3.000045073680254 -7.045120400320611e-06 0
3.000218546526588 -4.569941837782194e-06 0
2.999999967070479 1.370899360116937e-08 0
3.000000004864519 -3.619335653243093e-08 0
2.999999987137039 6.526274814394715e-07 0
3.000000195909853 -7.198347997939138e-08 0
3.000296558375435 3.594905804538257e-06 0
2.999967384400437 2.441625391224508e-06 0
3.001358749382363 3.397019230629674e-05 0
3.000198842933335 -1.105097379571207e-05 0
2.999947419049155 -2.133386171357627e-07 0
2.999967009648641 -3.666559550726941e-06 0
2.999973887474579 1.312666116377057e-06 0
2.999939083127548 4.214848277649597e-06 0
2.999994655821728 6.419877748210228e-07 0
2.999967170553926 8.545394966346354e-08 0
3.000000852529961 7.207205860670374e-09 0
2.999902238270131 -4.233688189861213e-06 0
3.000001706192188 2.052381488777267e-08 0
3.000000645413313 1.729194187827253e-08 0
2.999998867128382 1.022621985304254e-06 0
2.999997874804666 3.853809089554736e-07 0
2.99999999245104 4.645973998780248e-09 0
3.000000003889317 5.626369798869318e-09 0
2.999999767516739 1.337381059702731e-08 0
3.000000000001059 2.511716270886485e-12 0
1.505261197527483 0.009198850999523287 0
3.000000044154963 -1.065385813310974e-08 0
2.999999913813471 -2.072636957659264e-09 0
2.999999937726654 -1.752943821471699e-09 0