<?xml version="1.0"?>
<VTKFile type="UnstructuredGrid">
  <UnstructuredGrid>
  <Piece NumberOfPoints="1224"  NumberOfCells="2290">
    <Points>
      <DataArray type="Float64" NumberOfComponents="3" format="ascii">
0 0 0
0.6 0 0
0.6 0.2 0
3 0.2 0
3 1 0
0 1 0
0.05454545454535233 0 0
0.1090909090906768 0 0
0.1636363636359771 0 0
0.2181818181812728 0 0
0.2727272727265793 0 0
0.3272727272720317 0 0
0.3818181818176247 0 0
0.4363636363632168 0 0
0.4909090909088285 0 0
0.5454545454544089 0 0
0.6 0.03999999999991203 0
0.6 0.07999999999979179 0
0.6 0.1199999999997886 0
0.6 0.1599999999998948 0
0.6510638297871261 0.2 0
0.7021276595742618 0.2 0
0.7531914893613819 0.2 0
0.8042553191485237 0.2 0
0.8553191489356438 0.2 0
0.9063829787228289 0.2 0
0.957446808509926 0.2 0
1.008510638297009 0.2 0
1.059574468084092 0.2 0
1.110638297871174 0.2 0
1.161702127658257 0.2 0
1.21276595744534 0.2 0
1.263829787232422 0.2 0
1.314893617019505 0.2 0
1.365957446806588 0.2 0
1.417021276593671 0.2 0
1.468085106380754 0.2 0
1.519148936167923 0.2 0
1.570212765955006 0.2 0
1.621276595742088 0.2 0
1.672340425529171 0.2 0
1.723404255316254 0.2 0
1.774468085103337 0.2 0
1.825531914890624 0.2 0
1.876595744677951 0.2 0
1.927659574465349 0.2 0
1.978723404252714 0.2 0
2.029787234040074 0.2 0
2.080851063827477 0.2 0
2.131914893614798 0.2 0
2.182978723402204 0.2 0
2.234042553189523 0.2 0
2.285106382976928 0.2 0
2.336170212764247 0.2 0
2.387234042551653 0.2 0
2.438297872338975 0.2 0
2.489361702126377 0.2 0
2.540425531913739 0.2 0
2.591489361701102 0.2 0
2.642553191488421 0.2 0
2.693617021275827 0.2 0
2.744680851063146 0.2 0
2.795744680850551 0.2 0
2.84680851063787 0.2 0
2.897872340425276 0.2 0
2.948936170212618 0.2 0
3 0.2533333333332341 0
3 0.3066666666664725 0
3 0.3599999999996274 0
3 0.413333333332804 0
3 0.4666666666659806 0
3 0.5199999999991571 0
3 0.5733333333323336 0
3 0.6266666666656895 0
3 0.6799999999991551 0
3 0.7333333333326146 0
3 0.7866666666660802 0
3 0.8399999999995775 0
3 0.8933333333330373 0
3 0.9466666666664969 0
2.949152542373491 1 0
2.898305084746983 1 0
2.847457627120474 1 0
2.796610169493702 1 0
2.745762711866469 1 0
2.694915254239208 1 0
2.644067796611963 1 0
2.593220338985156 1 0
2.542372881358647 1 0
2.491525423732018 1 0
2.44067796610481 1 0
2.389830508477549 1 0
2.338983050850287 1 0
2.288135593223026 1 0
2.237288135595765 1 0
2.186440677968504 1 0
2.135593220341243 1 0
2.084745762713982 1 0
2.033898305086721 1 0
1.983050847459614 1 0
1.932203389832729 1 0
1.881355932205844 1 0
1.830508474578958 1 0
1.779661016952073 1 0
1.728813559325189 1 0
1.677966101698303 1 0
1.627118644071418 1 0
1.576271186444533 1 0
1.525423728817648 1 0
1.474576271190575 1 0
1.423728813563314 1 0
1.372881355936053 1 0
1.322033898308791 1 0
1.27118644068153 1 0
1.220338983054269 1 0
1.169491525427008 1 0
1.118644067799747 1 0
1.067796610172485 1 0
1.016949152545224 1 0
0.9661016949179628 1 0
0.9152542372907018 1 0
0.8644067796634407 1 0
0.8135593220361792 1 0
0.7627118644089181 1 0
0.7118644067816566 1 0
0.661016949154396 1 0
0.6101694915271345 1 0
0.5593220338998739 1 0
0.5084745762726124 1 0
0.4576271186453518 1 0
0.4067796610180903 1 0
0.3559322033908292 1 0
0.3050847457635677 1 0
0.2542372881363066 1 0
0.2033898305090456 1 0
0.1525423728817841 1 0
0.101694915254523 1 0
0.05084745762726151 1 0
0 0.9473684210524125 0
0 0.8947368421048248 0
0 0.8421052631576025 0
0 0.7894736842105994 0
0 0.7368421052635962 0
0 0.6842105263165927 0
0 0.6315789473695894 0
0 0.5789473684225861 0
0 0.5263157894755828 0
0 0.4736842105282874 0
0 0.4210526315806998 0
0 0.3684210526331123 0
0 0.3157894736855248 0
0 0.2631578947379374 0
0 0.21052631579035 0
0 0.1578947368427625 0
0 0.1052631578951749 0
0 0.05263157894758741 0
0.4374856279758046 0.955462795473483 0
0.625531914893563 0.2394317949808221 0
0.7891616249544176 0.9557759867023439 0
2.570562443351098 0.9559758769411787 0
2.364406779663917 0.9559648099769389 0
2.161016949154874 0.9559648099769389 0
1.957627118646171 0.9559648099772646 0
1.756856606547665 0.9560078743553572 0
1.553415402058453 0.9561420672712786 0
1.347457627122422 0.95627738856474 0
1.144067796613377 0.9563034567995272 0
0.04146670856173688 0.5498854761242812 0
0.9828861012149002 0.2442383967812095 0
2.465390809289578 0.2421522008426663 0
2.259572257543314 0.243586373321511 0
2.055319178697841 0.24363095694403 0
1.851066099915384 0.2436741865527954 0
1.646810778591931 0.2437170671454607 0
1.442550972205278 0.2437587738062726 0
1.238275543433999 0.2442249255777628 0
0.5808319854219957 0.2417757800606361 0
0.6039807146029165 0.2785115072887754 0
2.951522810440164 0.5995349944823752 0
0.5591131416216563 0.2791940688436214 0
0.5817690965011905 0.3180386921514113 0
0.5363223429032008 0.3181181454258206 0
0.5590799034518541 0.3577335228902347 0
2.671507320584846 0.2416532643303031 0
0.5129751095268966 0.3576683284772433 0
0.5360042291720796 0.3976917483469583 0
0.5824744072527975 0.3977458985417416 0
0.5593202208963615 0.4382323507424581 0
0.6062221806132498 0.4382172989803606 0
0.5831398502988122 0.4790536480492864 0
0.630245509211025 0.4792447281197085 0
0.5373735766893435 0.4817209888486334 0
0.2780994584865757 0.9660670791366374 0
0.9407829849899363 0.9559852449915113 0
0.6069171020766708 0.5203953730037822 0
0.6544691944766102 0.5205851219036783 0
2.724115018794794 0.9563165682871465 0
0.04341732373162228 0.2894490564426765 0
0.6304562046384772 0.5622881188475496 0
0.6786259291441818 0.5621981517123112 0
0.03938236249337418 0.7091098825652095 0
0.2999999999993055 0.04723774929726795 0
0.7024556039582556 0.5200372393771872 0
0.726826368578132 0.562505099575485 0
0.6545296629344706 0.6041261864689124 0
0.6061411599039735 0.6041581669226386 0
2.954333097254252 0.4393531299125908 0
0.7512905139641642 0.5199435586712576 0
0.7757938242112172 0.5624873891767795 0
0.4902278874550028 0.3174350849704655 0
0.4661669324669476 0.3576870257641042 0
0.8003371868304782 0.5195844107098163 0
0.8251782158071723 0.5621174250913318 0
0.6300572939290072 0.6460588488486728 0
0.581677101888915 0.6462390077748084 0
0.7994632498085218 0.6067218912904607 0
0.850068894442807 0.6047738158182728 0
0.8747482025846163 0.5617915498272615 0
0.8998102571129438 0.6045430073239006 0
0.924588798996443 0.5614360364847856 0
0.9497125983499418 0.6046345614192383 0
0.9744389394813738 0.5613114208485291 0
0.9997656958801404 0.604758732930365 0
1.024028015453996 0.5597386087889248 0
1.050046148741532 0.6042836632406788 0
1.075213347289947 0.5607219500906248 0
1.100604808237692 0.6043040651294929 0
1.125727120818654 0.5598592244124957 0
1.151165990249003 0.6040638744783449 0
1.176319565514503 0.5595216793632644 0
1.201793840633129 0.6038781229769293 0
1.226960854257978 0.5600604284234054 0
1.252470704079807 0.6038664424080111 0
1.277198987313166 0.55874807111347 0
1.303148970446812 0.6035341865995129 0
1.328130525802366 0.5586520846649797 0
1.353966012915828 0.6034054551655909 0
1.379205474149696 0.558835304845746 0
1.404820923589671 0.6032503772964327 0
1.430092956912838 0.5587079795953892 0
1.455686300628245 0.6030926920218221 0
1.480963489515269 0.5580480170404921 0
1.506562983627252 0.6028436706904448 0
1.531847734917255 0.5577680566445021 0
1.557453558526421 0.6026435181305781 0
1.582745756648754 0.5575726351194972 0
1.608358176126191 0.6024617369905624 0
1.633656322435163 0.5573842056888257 0
1.659277805706528 0.6022873884346892 0
1.684577462424181 0.5572075399874397 0
1.710203504633815 0.6021111834258887 0
1.735506494091908 0.5570246051384745 0
1.761134606493805 0.6019307913070558 0
1.786441498808711 0.5568475628142857 0
1.812072359676459 0.6017522495250318 0
1.837381834584306 0.5566653603575672 0
1.863017119880456 0.601574020443024 0
1.888326681794851 0.5564884669211013 0
1.913963858781491 0.601395113412113 0
1.939274704592935 0.5563067813822595 0
1.964908406083961 0.6012129143420911 0
1.990224566339525 0.5561292537946573 0
2.015859329864652 0.601032757987411 0
2.041177190815608 0.5559477304122714 0
2.066818109147928 0.600855564813206 0
2.09213259478423 0.5557710179709322 0
2.117774443326183 0.6006760179252703 0
2.143088896138059 0.5555900146741853 0
2.168729305797513 0.6004921726308964 0
2.194045774061603 0.5554125217101814 0
2.219686577151481 0.6003111949874665 0
2.245003702950199 0.5552312296013228 0
2.270641766736839 0.6001298880828497 0
2.295962173634055 0.5550546947866846 0
2.321601310982481 0.599950595338254 0
2.346923922781879 0.5548708301001631 0
2.372568004594504 0.5997713467128002 0
2.397895756972162 0.5547000681173012 0
2.423546697517365 0.5996004731097838 0
2.448884659670238 0.5545095609010697 0
2.474538141419978 0.5994220729206983 0
2.499902931415869 0.5543494429014709 0
2.525546234724433 0.5993228147833797 0
2.550973655834774 0.5541346321759457 0
2.576685338327378 0.5992395038842441 0
2.602182482443039 0.5540180644105763 0
2.958944511946492 0.7598964409357507 0
2.628014314012249 0.5990918128353608 0
0.4429170888396284 0.3159793431387367 0
0.4184631156771032 0.357715436029677 0
0.3946070818022522 0.3157219358498637 0
0.3697276561976696 0.3576135465858128 0
2.449044355814981 0.643990885448769 0
2.24531935830005 0.6444881680698032 0
1.024857369602972 0.6487487015028032 0
2.041498164113345 0.6452136474256573 0
1.837701628146142 0.6459229900926835 0
0.3455853078837237 0.3150377509381005 0
0.3204780172155196 0.3574251905568473 0
0.3449438693484468 0.4002519798591844 0
1.633970683060678 0.6466170330762969 0
1.227333380683899 0.6479317947648683 0
1.430444030483603 0.6473399689389928 0
0.875196942148915 0.6483605753517908 0
0.6057010339261732 0.6883083412871458 0
0.5571396249147901 0.6885103796531055 0
2.653543252321963 0.5527758280498023 0
1.099471497978971 0.5148848291986879 0
2.602427017093663 0.6438096025956825 0
2.653851606946175 0.6437140715169269 0
1.353138019780104 0.5138574114565649 0
1.556762689169365 0.5115839513085039 0
1.760509743411542 0.5109012431757174 0
1.964341412665395 0.510388685431229 0
0.2953909602266698 0.4001745965167012 0
[...]
    <PointData>
      <DataArray type="Float64" NumberOfComponents="3" Name="Velocity" format="ascii">
2.999999998287908 0 0
0 0 0
0 0 0
3.239000401712907 0 0
3.238867137590603 0 0
3.00000000010863 0 0
3.000000027104565 0 0
2.999999977110703 0 0
2.999993188313202 0 0
3.000027332497075 0 0
3.000533004671721 0 0
2.997872024041906 0 0
2.912603826923415 0 0
2.363356433616584 0 0
1.218935987361712 0 0
0.2894747370136184 0 0
0 0.1214224874771268 0
0 0.2126226807658776 0
0 0.3370419300237313 0
0 0.5006431195909407 0
1.429550676241671 0 0
2.010704991820532 0 0
2.334255637644477 0 0
2.56264835347416 0 0
2.717868559697042 0 0
2.83687409928728 0 0
2.909522121463951 0 0
2.952726373374818 0 0
2.976411472840171 0 0
2.989078785157125 0 0
2.995751785869802 0 0
2.9983226424733 0 0
2.999506128157551 0 0
2.999886317982563 0 0
2.999991280588596 0 0
3.000008065647688 0 0
3.000003412576107 0 0
3.000000539495276 0 0
2.999999722773331 0 0
2.99999989643115 0 0
3.00000002013002 0 0
3.000000006272739 0 0
2.999999997843795 0 0
3.000000000383699 0 0
2.99999999993686 0 0
3.000000000008976 0 0
3.000000000005699 0 0
2.99999999997927 0 0
3.000000000035265 0 0
2.999999999975965 0 0
2.9999999999602 0 0
3.00000000008219 0 0
3.000000000068467 0 0
2.999999999712255 0 0
3.000000000061372 0 0
3.000000000730425 0 0
2.999999997525157 0 0
3.00000000321263 0 0
3.000000078213128 0 0
2.999999866197859 0 0
2.999996858597887 0 0
2.999993894417104 0 0
3.000088758167098 0 0
3.001037024783381 0 0
3.008089212513918 0 0
3.056352555841677 0 0
3.239930774567261 0.001663356105997787 0
3.229747373655218 0.001086467732402549 0
3.231181935404465 0.0009059450163469599 0
3.231471614954601 5.924307582320126e-05 0
3.234334381938991 -0.0004517670972991827 0
3.236249246590748 -0.0006404087375680599 0
3.233748479498591 -0.0003045364133166735 0
3.232775100259194 -0.0004401856501752256 0
3.236465167000251 -1.093248931951824e-05 0
3.234545753556036 2.360716319736217e-05 0
3.235392581246505 -0.0002507082276614249 0
3.231802763371167 -0.0007061403310483928 0
3.229070737436487 -0.00177448252966262 0
3.239960922569984 -0.001312569086493151 0
3.051724263550352 0 0
3.008721062143616 0 0
3.001148164922594 0 0
3.000103493034908 0 0
2.99999964102718 0 0
2.99999756495663 0 0
2.999999763279176 0 0
3.000000056032221 0 0
3.000000005186291 0 0
2.999999997801445 0 0
3.000000000651274 0 0
3.000000000071967 0 0
2.999999999726904 0 0
3.000000000069719 0 0
3.000000000058586 0 0
2.999999999971872 0 0
2.999999999991048 0 0
3.000000000003249 0 0
3.000000000011438 0 0
2.999999999986636 0 0
3.00000000000642 0 0
3.000000000001019 0 0
2.999999999995302 0 0
3.000000000005079 0 0
2.999999999995402 0 0
3.000000000003353 0 0
3.000000000002651 0 0
2.999999999987744 0 0
2.999999999999468 0 0
3.000000000047972 0 0
2.999999999971162 0 0
2.999999999800354 0 0
3.000000000070989 0 0
3.000000000793926 0 0
3.00000000035633 0 0
2.999999997885044 0 0
2.999999996068439 0 0
2.999999996954511 0 0
3.000000000941988 0 0
3.000000002400653 0 0
3.000000001723309 0 0
2.999999997344812 0 0
2.999999993228261 0 0
2.999999994008065 0 0
2.999999997922687 0 0
3.000000000404939 0 0
3.000000000662771 0 0
3.000000000011872 0 0
2.999999999727246 0 0
3.000000000143761 0 0
2.999999999981626 0 0
2.999999999971507 0 0
3.000000000019937 0 0
2.999999999988367 0 0
3.000000000008548 0 0
3.000000000000431 0 0
3.000000000046928 0 0
3.000000000063682 0 0
3.000000000012236 0 0
3.000000000027519 0 0
2.999999999687569 0 0
3.000000000514653 0 0
3.000000000206889 0 0
3.000000000548753 0 0
3.000000000396481 0 0
2.999999999226976 0 0
3.000000000314769 0 0
3.000000002857452 0 0
2.999999997397377 0 0
2.99999999048404 0 0
2.99999999016473 0 0
2.999999987964109 0 0
2.999999973027117 0 0
2.999999980067259 0 0
3.000000004772009 0 0
3.000000006773959 0 0
2.999999999803393 3.614369223335768e-10 0
1.39713994852138 0.5512029361514037 0
3.000000002061718 1.391854668600688e-08 0
3.000000031501647 5.961292021726194e-10 0
3.000000000284354 3.257898615343796e-11 0
3.000000000025912 1.007937521060278e-12 0
3.000000000009401 -1.11340360725516e-12 0
3.000000000000917 3.999194092546896e-13 0
3.000000000029563 7.672309045116563e-12 0
3.00000000050308 -9.120415300557078e-11 0
3.000000000688036 1.172868651860235e-08 0
3.000000000953832 -1.044468492453968e-10 0
2.941366523648141 0.02358564092640341 0
3.000000000433315 -1.668424366354938e-10 0
2.999999999889415 1.773218170316969e-11 0
2.99999999999133 -1.971389957712473e-12 0
3.000000000229863 9.775460111850041e-12 0
2.999999990705978 -5.599212089545666e-09 0
3.000005725524392 -1.457285594306062e-06 0
2.999281688889641 -1.849077351708478e-06 0
1.305863216896827 0.7281530984212565 0
1.889053208033042 0.6935704437469381 0
3.069781254625961 -0.0002996027815899176 0
2.002097617509225 0.6034798940445596 0
2.341338760513707 0.5176138723389128 0
2.549721058447171 0.3114812830398083 0
2.7209101138941 0.2412288265473677 0
2.999998807177434 -5.787156696670056e-08 0
2.863124692669213 0.1033010710697607 0
2.919131944086537 0.07372041626512779 0
2.845396096231253 0.1617011939712796 0
2.957247496889731 0.0461095699450934 0
2.921569002950761 0.09666315345883707 0
2.979224754304103 0.02609559207082916 0
2.963342634417756 0.05241108692887865 0
2.991761670459372 0.009483702639597587 0
3.000000000030131 -2.967146061167765e-11 0
3.000000016862089 -3.874025198743439e-08 0
2.990809054494082 0.01334454387397525 0
2.984183001536235 0.02604994189078311 0
2.999997620084387 -6.685927127863127e-07 0
3.000000001985439 -1.394214095229865e-09 0
2.99633512970179 0.006115206498897637 0
2.993738142363345 0.01183972955269296 0
3.000000000218338 1.300531651384534e-10 0
3.000588924314801 7.98576667993726e-06 0
2.977767076133262 0.04428366498387176 0
2.991469989199854 0.01979458828326337 0
2.998639375509568 0.002593838335504257 0
2.999352059023026 0.0011212216787427 0
3.080978523284015 -0.0002819918148136867 0
2.977732096356355 0.05698533117425725 0
2.991766787255159 0.02567220111939688 0
2.79633396955604 0.1237686805530244 0
2.956287839596683 0.03002070200246554 0
2.9836191431956 0.05719269791220093 0
2.994457581273623 0.02556720904570993 0
2.999777893970088 0.000437739164650891 0
2.999919529918395 0.000148420715831652 0
2.997345110228751 0.01006437991785689 0
2.998369904317484 0.010152239139542 0
2.997591223042471 0.02218185360906136 0
2.999539375030002 0.008413158109874298 0
3.000101340129107 0.01686410421144217 0
3.000317020581116 0.006010459602371927 0
3.001420428880086 0.01129053861932962 0
3.000612355291808 0.003786038205669519 0
3.001691598682361 0.006761521181019382 0
3.000568413940205 0.002098970546972868 0
3.001291517583757 0.003374821145277132 0
3.000371619804131 0.0009749877806113903 0
3.000797231165249 0.00151480882538664 0
3.000186744170249 0.0003817712578121134 0
3.000392728434318 0.0005665543108656438 0
3.000069323265496 0.0001195312078022785 0
3.000146456811652 0.0001637918690346198 0
3.000014691368578 2.588722084089979e-05 0
3.000039422982812 3.38489271952737e-05 0
2.999997846650813 1.700806406590165e-06 0
3.000002670788476 2.424892582497997e-06 0
2.999996594978872 -1.152939148020199e-06 0
2.999996852684548 -8.365918300761184e-07 0
2.999998606948167 -4.191665025224484e-07 0
2.999998478978697 -1.262562330753109e-07 0
2.999999815594677 -3.790108876133564e-08 0
2.999999796443743 4.780518949480263e-08 0
3.000000088999577 -1.229924596879289e-09 0
3.000000081370215 -8.314291858377838e-09 0
3.000000032513848 -4.230313827183612e-09 0
3.000000030602205 -1.240260171639919e-08 0
2.999999993554582 1.527214188269885e-09 0
2.999999993166449 3.121977150506152e-09 0
2.999999999230204 2.606946929884174e-10 0
2.999999999161589 9.111602762123855e-10 0
3.000000000902119 -5.091288301101034e-10 0
3.000000000523171 -6.658025752943973e-10 0
2.999999999752527 1.881767302509555e-10 0
2.999999999917777 1.550682261629005e-10 0
3.00000000002618 -2.25508383195577e-11 0
3.000000000000836 -1.57574604159955e-11 0
3.000000000004007 -6.213448056579863e-12 0
2.999999999997847 -1.973082731345033e-12 0
3.000000000000146 4.65892893425782e-12 0
3.000000000006521 1.04498200159309e-12 0
2.999999999991252 -1.543620093735877e-12 0
2.999999999997182 5.547832509177307e-13 0
3.000000000014768 -1.173630215976991e-12 0
2.999999999992096 -1.020897134754564e-13 0
2.999999999990794 2.786777771594789e-12 0
3.000000000014571 -1.869236823474029e-12 0
2.999999999991747 -2.120244266807388e-12 0
3.000000000000234 2.35183830786708e-12 0
3.000000000009948 1.517540795889302e-13 0
2.999999999975884 2.898460209452848e-13 0
3.000000000033549 2.169713686789111e-14 0
2.999999999984253 -1.981018611042723e-12 0
2.9999999999604 2.684254352517003e-12 0
3.000000000109249 -1.012875331689177e-12 0
2.999999999861428 -4.815403783626386e-12 0
3.000000000033713 3.729971994878029e-12 0
3.000000000248634 1.175700563463958e-12 0
2.99999999950207 -8.931169687339521e-13 0
3.000000000261368 3.680112111939534e-12 0
3.000000000768191 -1.221192401528375e-11 0
2.999999998414708 1.188426423426719e-11 0
2.999999998312638 5.004404164832875e-11 0
3.000000004708388 -8.170989320302537e-11 0
3.000000020997624 -4.400036314231567e-10 0
3.000000027586192 -5.23072473742715e-10 0
2.999999971551254 -1.766467532884636e-09 0
3.090366977964266 -5.506028960163918e-05 0
2.999999755038973 2.13473426693562e-09 0
2.942246772257887 0.03211287780974632 0
2.990506357654553 0.006236541223970287 0
2.989792487836409 0.005300881776285303 0
2.998782256230581 0.0007994010516817287 0
3.000000000838213 2.707742971389466e-12 0
2.999999999981138 -1.243245251751567e-12 0
3.000172263548436 0.001036654219786274 0
2.99999999999596 -1.064048767386963e-12 0
3.000000000003056 -1.989920937188599e-12 0
2.999840720488023 0.0001029411813008882 0
3.000051160874242 -1.523363043862891e-05 0
2.999926976373915 8.110757017344076e-05 0
2.999999998708367 1.528147563727124e-11 0
3.000001750233807 1.388862428657023e-05 0
2.999999901577732 -9.55509487230554e-08 0
2.999597319798887 0.003474889456430162 0
2.999975613823466 5.144502533982925e-05 0
2.999995295084656 1.061592936313807e-05 0
2.999999090486186 1.492975955610968e-08 0
3.002289456055687 0.004703544596755799 0
2.999999973408024 2.123788582333439e-09 0
2.99999913315643 1.731458070526168e-08 0
3.000003700775345 -4.144715496734872e-07 0
3.000000059322061 -2.002955743560442e-08 0
3.000000000174625 -5.353450319183297e-10 0
2.9999999999874 -2.163790791384547e-13 0
3.000023847308592 -1.009085037538628e-05 0
3.0000144900516 -3.439544593829555e-06 0
3.000000000003614 -3.829676707263775e-12 0
3.00000000022166 1.258352664072782e-12 0
3.000000031773129 -7.282083593795226e-10 0
2.957523971579592 0.113813307276898 0
3.001816326851393 0.02867330784646102 0
2.999999779813995 8.925039766571226e-09 0
2.999998388806412 1.883245532149629e-08 0
2.999999307865787 2.263184717086262e-06 0
2.999996596537702 9.566847153697281e-06 0
3.000000557539124 -5.968789078515322e-07 0
3.000000579201326 1.441021975535517e-07 0
3.000000346965079 -5.412462654522911e-07 0
3.000000768944319 -9.837354230814465e-07 0
3.000000046335833 -1.143957752551224e-07 0
3.000000148265238 -2.71890485031106e-07 0
2.999999977157892 9.7171886086424e-09 0
2.999999980832466 -1.629731932351709e-08 0
2.999999991703641 1.19500222784741e-08 0
2.999999982925841 1.661900381217854e-08 0
0.2343165263061552 0.3832370071776237 0
2.93760186042329 0.02694333797284043 0
3.000000000922205 4.436512157119931e-10 0
3.000084057476382 -2.480782542459686e-05 0
3.000509790568659 9.021161178967149e-05 0
3.000004294474599 -2.824172735471261e-06 0
2.681295181288695 0.1191888851147382 0
2.999999999599466 2.398918821806949e-09 0
2.999999210375706 1.840991202161007e-08 0
2.999999982112536 1.723494586389252e-09 0
2.99999860110999 2.772882936301839e-10 0
3.00000386651937 -3.284046511197392e-07 0
2.248893963733483 0.2336876064290102 0
3.000000319209216 -5.584060992293831e-07 0
2.999995776561249 -2.139576557276348e-07 0
3.000000000659589 -2.806714424924615e-11 0
3.000000015789396 -3.043408881827437e-09 0
3.000179284274452 -3.431096558273949e-05 0
3.000063606924232 -1.748586869759071e-05 0
3.000000000046497 -1.004374178741476e-10 0
2.999999994620081 1.732401468391156e-08 0
2.999999999998113 2.786708523941353e-12 0
3.000000000013848 -3.126597792561287e-12 0
2.99999999964269 1.505916418546677e-10 0
3.000000031851982 3.327301370386456e-09 0
3.000000000045655 5.250648333012344e-12 0
3.000000000004744 -1.126115609160289e-12 0
3.000000000309076 -3.561486954222815e-11 0
2.999999932360735 1.002237085764356e-07 0
2.999999999884106 4.104369078353703e-10 0
2.98577265563926 0.005055534069582232 0
2.999973477112829 -3.184665808209222e-05 0
2.999997278078711 -1.402374671647714e-06 0
2.999999999990884 -5.102093020515044e-13 0
2.999999999884119 -1.570542895346693e-12 0
3.000000000406089 7.280431125822713e-11 0
3.000000014090423 1.344288118755566e-08 0
2.999999997790766 -3.999057064276211e-10 0
2.999999999907956 -1.042361497613364e-11 0
2.999999999994206 -2.665154235953727e-12 0
3.000000000009675 5.277884952965515e-13 0
3.000000000007033 -1.530661637567722e-11 0
3.000069313393857 0.0002168041049057668 0
2.999999999991036 1.097757050715003e-12 0
2.999999999981695 -2.028133567205847e-11 0
2.999999996643353 3.549329425403474e-09 0
2.999998658169429 2.213688308606766e-07 0
3.000000000010593 1.986019104855832e-12 0
2.999999999957663 2.143450598560891e-12 0
3.000597842513425 0.0006361412251466425 0
3.000000034854988 5.846148888001903e-10 0
3.000000375623494 -5.372432581635353e-07 0
3.000532295426744 -5.240061702986936e-05 0
2.751329481607381 0.006689180685744893 0
2.999999998324499 3.497114049022009e-11 0
3.000002544034213 -1.315974750478777e-06 0
2.999999997877351 5.788132002195577e-09 0
2.781564593949266 0.2654765952064385 0
2.999999577769195 8.281025843482919e-08 0
3.000000000135387 -8.203648651786298e-10 0
2.999999971354175 2.265768695966303e-08 0
2.999999998886324 3.581763069285083e-09 0
3.000027997316179 -6.932101172316231e-07 0
2.999999800151497 5.620899653072043e-09 0
3.000000030178268 -5.273753671261259e-10 0
3.000000004469575 -3.496204866489187e-08 0
2.99999999979179 1.476956151189179e-09 0
3.0000003957382 2.166553691987825e-06 0
3.000119156836218 -5.051249966622221e-06 0
2.99999999957916 -2.048996246065322e-11 0
2.999926145614645 9.508235529507616e-05 0
3.000259448397336 -4.588174472332508e-05 0
3.000033334320032 -9.895239143630707e-06 0
3.000000371711057 -7.696278734715048e-07 0
3.000003528552559 -3.77270021658613e-08 0
3.000112768493457 -2.827265649886682e-07 0
3.080973613583323 0.001318420797181044 0
3.065300525983757 -0.001201008211634375 0
3.000008712921857 -1.518995875778915e-06 0
3.000000000197046 6.166543177951563e-11 0
2.973434956892296 0.1013429222404817 0
2.932826036318409 0.1797263642282563 0
2.962651831382891 0.1446618528346877 0
3.000032880964876 -1.422431881404076e-06 0
2.999600194961192 0.0008740498486305995 0
1.645057001387867 0.5932934047471045 0
2.999956199446613 6.96955222872288e-05 0
2.99999950460385 1.302401947164121e-07 0
2.999999858612296 6.590557809314373e-08 0
2.999999847307656 9.083385449457776e-08 0
2.999997805853505 2.811625628853346e-07 0
3.000000000248941 -2.435736325499356e-10 0
2.907978433729582 0.2200654407394011 0
2.946599387282114 0.164567677391105 0
2.855333516539809 0.2774932562836649 0
3.000451495380944 -1.715150959204958e-05 0
3.000139725022876 -6.881014932272298e-07 0
2.999999999867205 1.038263222414889e-10 0
2.999999999811986 4.672117101353793e-10 0
2.999999985158828 2.611451716527236e-09 0
3.00000001814854 -6.489310055849634e-10 0
3.000000002934438 -1.379298034541132e-10 0
2.999999997914827 7.643145045677914e-11 0
2.999999998846377 2.964170227852114e-11 0
3.000000000879178 -3.988288092557475e-11 0
3.000000000073245 1.322515671032137e-11 0
2.999999999590602 -1.339459836508417e-13 0
3.000000000300856 2.162114030583728e-12 0
2.999999999949961 -1.528520268718551e-11 0
2.999999999888121 -2.550008628568102e-12 0
3.000000000109043 2.074308602285234e-11 0
2.999999999938876 -7.805887235984622e-12 0
2.99999999999752 5.003311720309502e-12 0
3.000000000044158 -1.215926396556317e-12 0
2.999999999977476 -1.209000873517354e-11 0
2.999999999995776 9.24637420426035e-12 0
3.000000000001743 4.961442935692147e-13 0
3.000000000008244 -4.976204766835107e-12 0
3.00000000000164 6.130405204178323e-12 0
2.999999999978197 -1.664606313877043e-12 0
3.000000000010029 -3.484270655838269e-12 0
3.000000000021089 3.836577483892802e-12 0
2.999999999981658 -1.097470849724664e-12 0
2.999999999990573 -2.717233104293132e-12 0
3.000000000017046 3.105222285138569e-12 0
2.99999999999714 1.043394186787826e-12 0
2.999999999989706 -2.643122329354868e-12 0
3.00000000001039 2.591807404729126e-13 0
3.000000000005422 1.316318204122399e-12 0
2.999999999984889 -1.744693065383821e-12 0
2.999999999992405 -1.017628145388044e-12 0
3.000000000020624 5.496734951667405e-12 0
3.000000000005318 6.286407477351356e-12 0
3.0000000000148 -2.204729101269333e-11 0
3.000000000047868 -1.327910310439594e-11 0
2.999999999774749 2.980654629224332e-11 0
2.999999999794547 -1.317038105085087e-11 0
3.000000000679196 1.16447451326176e-10 0
3.000000000189603 2.001827099372037e-10 0
3.000000000040745 -7.343263748721898e-10 0
3.000000000947131 -2.723269221988748e-10 0
2.999999994855568 -5.876902047456936e-10 0
2.999999997827578 -1.499395843136275e-09 0
2.999999998519616 6.621967895891775e-09 0
2.99999999465166 1.851748310104751e-09 0
3.000000027208241 2.15113067476135e-08 0
3.000000004083653 1.311847450604154e-08 0
3.000000070300497 1.357890406167701e-08 0
3.000000033876332 2.08906433656501e-08 0
3.000000054375825 -1.000221557516152e-07 0
3.000000056279139 -1.877848187601357e-08 0
2.999999868340424 -4.237772550212701e-07 0
3.000000024027672 -1.564613939407452e-07 0
2.999999408065702 -7.948636808184754e-07 0
2.999999896401935 -4.140449774224623e-07 0
2.999998851085056 -4.235283155075599e-07 0
2.999999627623152 -6.65363841934532e-07 0
2.999998292261618 1.399986040728825e-06 0
2.999999310674698 -7.645073166845062e-07 0
2.999997629619544 5.671616110040089e-06 0
2.99999903760843 -5.489034434006061e-07 0
2.999997005098511 1.380240489429915e-05 0
2.99999885302586 5.471774045062458e-07 0
2.999995592480018 2.901418134003173e-05 0
2.999998551965068 2.742085836850787e-06 0
2.999991211712458 4.441623458484942e-05 0
2.999998114541487 3.671440200577088e-06 0
2.999988308286725 3.958000669938769e-05 0
2.999999129449591 1.642073101764712e-07 0
2.999992827721267 1.753589879022791e-05 0
3.00000009210735 -1.16301913901456e-06 0
3.000028633725034 -7.230841346253252e-07 0
3.000396167160668 -4.518155874743306e-06 0
2.999999953733493 3.203706927453307e-08 0
2.999999999099226 4.972528466067618e-09 0
3.000185207078888 -3.800376914261055e-05 0
3.000273991789457 2.06936812634502e-06 0
3.001154921838301 -2.938989858015818e-05 0
2.99999747969279 6.265612204075796e-06 0
3.000000453386579 -1.317048730964666e-06 0
2.999960687507209 0.0001100113555617265 0
2.999998845873999 3.16416003361683e-07 0
3.001407738353622 -1.09131778374554e-05 0
3.000432377078631 3.735942631723626e-06 0
3.003417498439276 2.258729580723753e-05 0
3.001196972325721 -4.002081581409502e-05 0
3.000126226477196 -3.335682769234416e-06 0
3.000433172953088 -2.813894571314407e-05 0
3.000033307064085 -2.265594927771731e-06 0
3.000148697934255 -7.149037842902638e-06 0
3.000004996439401 -1.806590715111605e-07 0
3.000033120383182 1.519111794772955e-06 0
2.99999815605845 2.023450169891734e-07 0
3.000565874611758 6.043834228518203e-06 0
2.999998100033325 2.079771900451872e-08 0
2.999999079376287 -3.904468204779161e-08 0
3.000005651290666 -1.671359558906183e-06 0
2.999978509350071 4.15650308075006e-05 0
3.000000009060447 1.071201310691506e-09 0
3.000000078363812 -1.120380474599304e-06 0
3.000000144565317 -2.04257025564438e-09 0
3.000000000061454 1.406310143624517e-10 0
0.6045012365506803 0.07388824652373567 0
2.999999748805088 -3.429597703990635e-09 0
2.999999983377989 -7.884250104527158e-09 0
3.000000031857833 -1.066418400265896e-10 0
3.000000020895779 1.089976691933339e-09 0
3.000000004046355 3.285816569070054e-10 0