<?xml version="1.0"?>
<VTKFile type="UnstructuredGrid">
  <UnstructuredGrid>
  <Piece NumberOfPoints="1224"  NumberOfCells="2290">
    <Points>
      <DataArray type="Float64" NumberOfComponents="3" format="ascii">
0 0 0
0.6 0 0
0.6 0.2 0
3 0.2 0
3 1 0
0 1 0
0.05454545454535233 0 0
0.1090909090906768 0 0
0.1636363636359771 0 0
0.2181818181812728 0 0
0.2727272727265793 0 0
0.3272727272720317 0 0
0.3818181818176247 0 0
0.4363636363632168 0 0
0.4909090909088285 0 0
0.5454545454544089 0 0
0.6 0.03999999999991203 0
0.6 0.07999999999979179 0
0.6 0.1199999999997886 0
0.6 0.1599999999998948 0
0.6510638297871261 0.2 0
0.7021276595742618 0.2 0
0.7531914893613819 0.2 0
0.8042553191485237 0.2 0
0.8553191489356438 0.2 0
0.9063829787228289 0.2 0
0.957446808509926 0.2 0
1.008510638297009 0.2 0
1.059574468084092 0.2 0
1.110638297871174 0.2 0
1.161702127658257 0.2 0
1.21276595744534 0.2 0
1.263829787232422 0.2 0
1.314893617019505 0.2 0
1.365957446806588 0.2 0
1.417021276593671 0.2 0
1.468085106380754 0.2 0
1.519148936167923 0.2 0
1.570212765955006 0.2 0
1.621276595742088 0.2 0
1.672340425529171 0.2 0
1.723404255316254 0.2 0
1.774468085103337 0.2 0
1.825531914890624 0.2 0
1.876595744677951 0.2 0
1.927659574465349 0.2 0
1.978723404252714 0.2 0
2.029787234040074 0.2 0
2.080851063827477 0.2 0
2.131914893614798 0.2 0
2.182978723402204 0.2 0
2.234042553189523 0.2 0
2.285106382976928 0.2 0
2.336170212764247 0.2 0
2.387234042551653 0.2 0
2.438297872338975 0.2 0
2.489361702126377 0.2 0
2.540425531913739 0.2 0
2.591489361701102 0.2 0
2.642553191488421 0.2 0
2.693617021275827 0.2 0
2.744680851063146 0.2 0
2.795744680850551 0.2 0
2.84680851063787 0.2 0
2.897872340425276 0.2 0
2.948936170212618 0.2 0
3 0.2533333333332341 0
3 0.3066666666664725 0
3 0.3599999999996274 0
3 0.413333333332804 0
3 0.4666666666659806 0
3 0.5199999999991571 0
3 0.5733333333323336 0
3 0.6266666666656895 0
3 0.6799999999991551 0
3 0.7333333333326146 0
3 0.7866666666660802 0
3 0.8399999999995775 0
3 0.8933333333330373 0
3 0.9466666666664969 0
2.949152542373491 1 0
2.898305084746983 1 0
2.847457627120474 1 0
2.796610169493702 1 0
2.745762711866469 1 0
2.694915254239208 1 0
2.644067796611963 1 0
2.593220338985156 1 0
2.542372881358647 1 0
2.491525423732018 1 0
2.44067796610481 1 0
2.389830508477549 1 0
2.338983050850287 1 0
2.288135593223026 1 0
2.237288135595765 1 0
2.186440677968504 1 0
2.135593220341243 1 0
2.084745762713982 1 0
2.033898305086721 1 0
1.983050847459614 1 0
1.932203389832729 1 0
1.881355932205844 1 0
1.830508474578958 1 0
1.779661016952073 1 0
1.728813559325189 1 0
1.677966101698303 1 0
1.627118644071418 1 0
1.576271186444533 1 0
1.525423728817648 1 0
1.474576271190575 1 0
1.423728813563314 1 0
1.372881355936053 1 0
1.322033898308791 1 0
1.27118644068153 1 0
1.220338983054269 1 0
1.169491525427008 1 0
1.118644067799747 1 0
1.067796610172485 1 0
1.016949152545224 1 0
0.9661016949179628 1 0
0.9152542372907018 1 0
0.8644067796634407 1 0
0.8135593220361792 1 0
0.7627118644089181 1 0
0.7118644067816566 1 0
0.661016949154396 1 0
0.6101694915271345 1 0
0.5593220338998739 1 0
0.5084745762726124 1 0
0.4576271186453518 1 0
0.4067796610180903 1 0
0.3559322033908292 1 0
0.3050847457635677 1 0
0.2542372881363066 1 0
0.2033898305090456 1 0
0.1525423728817841 1 0
0.101694915254523 1 0
0.05084745762726151 1 0
0 0.9473684210524125 0
0 0.8947368421048248 0
0 0.8421052631576025 0
0 0.7894736842105994 0
0 0.7368421052635962 0
0 0.6842105263165927 0
0 0.6315789473695894 0
0 0.5789473684225861 0
0 0.5263157894755828 0
0 0.4736842105282874 0
0 0.4210526315806998 0
0 0.3684210526331123 0
0 0.3157894736855248 0
0 0.2631578947379374 0
0 0.21052631579035 0
0 0.1578947368427625 0
0 0.1052631578951749 0
0 0.05263157894758741 0
0.4374856279758046 0.955462795473483 0
0.625531914893563 0.2394317949808221 0
0.7891616249544176 0.9557759867023439 0
2.570562443351098 0.9559758769411787 0
2.364406779663917 0.9559648099769389 0
2.161016949154874 0.9559648099769389 0
1.957627118646171 0.9559648099772646 0
1.756856606547665 0.9560078743553572 0
1.553415402058453 0.9561420672712786 0
1.347457627122422 0.95627738856474 0
1.144067796613377 0.9563034567995272 0
0.04146670856173688 0.5498854761242812 0
0.9828861012149002 0.2442383967812095 0
2.465390809289578 0.2421522008426663 0
2.259572257543314 0.243586373321511 0
2.055319178697841 0.24363095694403 0
1.851066099915384 0.2436741865527954 0
1.646810778591931 0.2437170671454607 0
1.442550972205278 0.2437587738062726 0
1.238275543433999 0.2442249255777628 0
0.5808319854219957 0.2417757800606361 0
0.6039807146029165 0.2785115072887754 0
2.951522810440164 0.5995349944823752 0
0.5591131416216563 0.2791940688436214 0
0.5817690965011905 0.3180386921514113 0
0.5363223429032008 0.3181181454258206 0
0.5590799034518541 0.3577335228902347 0
2.671507320584846 0.2416532643303031 0
0.5129751095268966 0.3576683284772433 0
0.5360042291720796 0.3976917483469583 0
0.5824744072527975 0.3977458985417416 0
0.5593202208963615 0.4382323507424581 0
0.6062221806132498 0.4382172989803606 0
0.5831398502988122 0.4790536480492864 0
0.630245509211025 0.4792447281197085 0
0.5373735766893435 0.4817209888486334 0
0.2780994584865757 0.9660670791366374 0
0.9407829849899363 0.9559852449915113 0
0.6069171020766708 0.5203953730037822 0
0.6544691944766102 0.5205851219036783 0
2.724115018794794 0.9563165682871465 0
0.04341732373162228 0.2894490564426765 0
0.6304562046384772 0.5622881188475496 0
0.6786259291441818 0.5621981517123112 0
0.03938236249337418 0.7091098825652095 0
0.2999999999993055 0.04723774929726795 0
0.7024556039582556 0.5200372393771872 0
0.726826368578132 0.562505099575485 0
0.6545296629344706 0.6041261864689124 0
0.6061411599039735 0.6041581669226386 0
2.954333097254252 0.4393531299125908 0
0.7512905139641642 0.5199435586712576 0
0.7757938242112172 0.5624873891767795 0
0.4902278874550028 0.3174350849704655 0
0.4661669324669476 0.3576870257641042 0
0.8003371868304782 0.5195844107098163 0
0.8251782158071723 0.5621174250913318 0
0.6300572939290072 0.6460588488486728 0
0.581677101888915 0.6462390077748084 0
0.7994632498085218 0.6067218912904607 0
0.850068894442807 0.6047738158182728 0
0.8747482025846163 0.5617915498272615 0
0.8998102571129438 0.6045430073239006 0
0.924588798996443 0.5614360364847856 0
0.9497125983499418 0.6046345614192383 0
0.9744389394813738 0.5613114208485291 0
0.9997656958801404 0.604758732930365 0
1.024028015453996 0.5597386087889248 0
1.050046148741532 0.6042836632406788 0
1.075213347289947 0.5607219500906248 0
1.100604808237692 0.6043040651294929 0
1.125727120818654 0.5598592244124957 0
1.151165990249003 0.6040638744783449 0
1.176319565514503 0.5595216793632644 0
1.201793840633129 0.6038781229769293 0
1.226960854257978 0.5600604284234054 0
1.252470704079807 0.6038664424080111 0
1.277198987313166 0.55874807111347 0
1.303148970446812 0.6035341865995129 0
1.328130525802366 0.5586520846649797 0
1.353966012915828 0.6034054551655909 0
1.379205474149696 0.558835304845746 0
1.404820923589671 0.6032503772964327 0
1.430092956912838 0.5587079795953892 0
1.455686300628245 0.6030926920218221 0
1.480963489515269 0.5580480170404921 0
1.506562983627252 0.6028436706904448 0
1.531847734917255 0.5577680566445021 0
1.557453558526421 0.6026435181305781 0
1.582745756648754 0.5575726351194972 0
1.608358176126191 0.6024617369905624 0
1.633656322435163 0.5573842056888257 0
1.659277805706528 0.6022873884346892 0
1.684577462424181 0.5572075399874397 0
1.710203504633815 0.6021111834258887 0
1.735506494091908 0.5570246051384745 0
1.761134606493805 0.6019307913070558 0
1.786441498808711 0.5568475628142857 0
1.812072359676459 0.6017522495250318 0
1.837381834584306 0.5566653603575672 0
1.863017119880456 0.601574020443024 0
1.888326681794851 0.5564884669211013 0
1.913963858781491 0.601395113412113 0
1.939274704592935 0.5563067813822595 0
1.964908406083961 0.6012129143420911 0
1.990224566339525 0.5561292537946573 0
2.015859329864652 0.601032757987411 0
2.041177190815608 0.5559477304122714 0
2.066818109147928 0.600855564813206 0
2.09213259478423 0.5557710179709322 0
2.117774443326183 0.6006760179252703 0
2.143088896138059 0.5555900146741853 0
2.168729305797513 0.6004921726308964 0
2.194045774061603 0.5554125217101814 0
2.219686577151481 0.6003111949874665 0
2.245003702950199 0.5552312296013228 0
2.270641766736839 0.6001298880828497 0
2.295962173634055 0.5550546947866846 0
2.321601310982481 0.599950595338254 0
2.346923922781879 0.5548708301001631 0
2.372568004594504 0.5997713467128002 0
2.397895756972162 0.5547000681173012 0
2.423546697517365 0.5996004731097838 0
2.448884659670238 0.5545095609010697 0
2.474538141419978 0.5994220729206983 0
2.499902931415869 0.5543494429014709 0
2.525546234724433 0.5993228147833797 0
2.550973655834774 0.5541346321759457 0
2.576685338327378 0.5992395038842441 0
2.602182482443039 0.5540180644105763 0
2.958944511946492 0.7598964409357507 0
2.628014314012249 0.5990918128353608 0
0.4429170888396284 0.3159793431387367 0
0.4184631156771032 0.357715436029677 0
0.3946070818022522 0.3157219358498637 0
0.3697276561976696 0.3576135465858128 0
2.449044355814981 0.643990885448769 0
2.24531935830005 0.6444881680698032 0
1.024857369602972 0.6487487015028032 0
2.041498164113345 0.6452136474256573 0
1.837701628146142 0.6459229900926835 0
0.3455853078837237 0.3150377509381005 0
0.3204780172155196 0.3574251905568473 0
0.3449438693484468 0.4002519798591844 0
1.633970683060678 0.6466170330762969 0
1.227333380683899 0.6479317947648683 0
1.430444030483603 0.6473399689389928 0
0.875196942148915 0.6483605753517908 0
0.6057010339261732 0.6883083412871458 0
0.5571396249147901 0.6885103796531055 0
2.653543252321963 0.5527758280498023 0
1.099471497978971 0.5148848291986879 0
2.602427017093663 0.6438096025956825 0
2.653851606946175 0.6437140715169269 0
1.353138019780104 0.5138574114565649 0
1.556762689169365 0.5115839513085039 0
1.760509743411542 0.5109012431757174 0
1.964341412665395 0.510388685431229 0
0.2953909602266698 0.4001745965167012 0
[...]
    <PointData>
      <DataArray type="Float64" NumberOfComponents="3" Name="Velocity" format="ascii">
3.000000088034863 0 0
0 0 0
0 0 0
3.203959369548201 0 0
3.205669083704717 0 0
3.000000000000202 0 0
2.999999965594347 0 0
2.999999803278691 0 0
3.000002024627188 0 0
2.999986115158048 0 0
3.000072779279198 0 0
2.999856906703862 0 0
2.998358723967327 0 0
3.018922007102832 0 0
2.976730149122928 0 0
1.944299499834019 0 0
0 0.009513154165605119 0
0 -0.003044835628115404 0
0 0.04476720994889726 0
0 0.1705670559126584 0
1.910749127473435 0 0
2.656037429730725 0 0
2.92074964826031 0 0
2.991737853887184 0 0
3.001851673777762 0 0
3.00050550242011 0 0
2.999855892112923 0 0
2.999984946560626 0 0
3.000011934955054 0 0
2.99999803139277 0 0
2.999999704768453 0 0
3.000000268580599 0 0
2.999999905788396 0 0
3.000000026389233 0 0
2.999999993053193 0 0
3.000000001828677 0 0
2.999999999511719 0 0
3.000000000126713 0 0
2.999999999968381 0 0
3.000000000007462 0 0
2.99999999999838 0 0
3.000000000000307 0 0
2.999999999999954 0 0
3 0 0
3.000000000000014 0 0
2.999999999999957 0 0
3.000000000000071 0 0
2.999999999999985 0 0
2.999999999999967 0 0
2.999999999999018 0 0
3.000000000003517 0 0
3.000000000008993 0 0
2.999999999901924 0 0
3.000000000224547 0 0
3.00000000044451 0 0
2.999999996350258 0 0
3.000000011352397 0 0
2.99999998928921 0 0
2.999999865276576 0 0
3.000001063454074 0 0
2.999995910579267 0 0
3.000000054651025 0 0
3.000081774322992 0 0
2.999597154704048 0 0
2.999639277940359 0 0
3.02999942881932 0 0
3.205628731400159 0.0006863903905291934 0
3.195377459337207 -0.0001035715687512594 0
3.196492415824735 0.0001565815344038925 0
3.196182632751853 -0.0001187388900639661 0
3.198346026041023 -0.000217889821436515 0
3.200696250354528 -9.054041988382845e-05 0
3.198716402781532 0.0001707547215221784 0
3.19799392399859 -0.0003745103727568459 0
3.201623469886099 -3.204932983197905e-05 0
3.199342694718585 0.0001358879655649048 0
3.200690854540843 0.0001489537208991225 0
3.19731165859261 0.0001375899961073252 0
3.196015233953813 -0.0007917399420396819 0
3.207876026689201 -0.000539243870630491 0
3.026087140823195 0 0
2.999835329609672 0 0
2.999629802107902 0 0
3.000054269925733 0 0
3.000001120857039 0 0
2.999996776873953 0 0
3.000000838500055 0 0
2.999999890621952 0 0
2.999999993645204 0 0
3.000000007316059 0 0
2.999999997892105 0 0
2.999999999937464 0 0
3.000000000251401 0 0
2.999999999935534 0 0
2.999999999997336 0 0
3.000000000005566 0 0
2.999999999998811 0 0
2.99999999999986 0 0
3.000000000000151 0 0
2.999999999999947 0 0
3.000000000000015 0 0
2.999999999999997 0 0
3 0 0
3 0 0
3 0 0
3.000000000000001 0 0
3.000000000000001 0 0
2.999999999999999 0 0
3.000000000000007 0 0
2.999999999999997 0 0
2.999999999999969 0 0
3.000000000000051 0 0
3.000000000000091 0 0
2.999999999999684 0 0
2.99999999999986 0 0
3.000000000001106 0 0
3.000000000000115 0 0
2.999999999996819 0 0
3.000000000000485 0 0
3.000000000008757 0 0
3.000000000003813 0 0
2.999999999985044 0 0
2.999999999974928 0 0
2.999999999982846 0 0
2.999999999999043 0 0
3.000000000005681 0 0
3.000000000002798 0 0
2.999999999994611 0 0
2.999999999998201 0 0
3.000000000001123 0 0
2.999999999997238 0 0
2.999999999998602 0 0
3.00000000000178 0 0
2.999999999999178 0 0
3.000000000000111 0 0
3.000000000000079 0 0
2.999999999999991 0 0
2.999999999999922 0 0
2.999999999999909 0 0
3.000000000000465 0 0
2.999999999999372 0 0
2.999999999996677 0 0
3.000000000015902 0 0
2.999999999998488 0 0
3.00000000007659 0 0
2.999999999346039 0 0
2.999999999561481 0 0
3.000000001692035 0 0
3.000000001016931 0 0
2.999999997177141 0 0
2.999999984090162 0 0
2.999999978825289 0 0
2.999999982535571 0 0
2.999999993179116 0 0
3.00000001421096 0 0
3.000000027337093 0 0
3.000000000002281 5.056111000061096e-12 0
1.984159673105334 0.2895872410963142 0
3.000000000048283 2.220732882616393e-11 0
2.999999908342418 -5.010996400606837e-09 0
2.999999999539858 -1.928729494944414e-11 0
2.999999999999478 4.038540030220015e-13 0
3.000000000000005 -9.520537989725337e-15 0
3 -9.868360256452529e-16 0
2.999999999999997 2.427690572144351e-15 0
2.99999999999982 2.320969623561195e-14 0
2.999999999997522 -1.735718841155118e-13 0
3.000000000664428 -2.146361117405927e-10 0
2.999921806221921 1.23055897161843e-05 0
2.999999993827585 5.697108777170441e-10 0
3.000000000028262 -2.306487262514045e-12 0
3.000000000000142 1.592464074032889e-14 0
2.999999999999985 5.890886720533876e-15 0
2.999999999998607 4.309633552212456e-14 0
3.000000000706036 -1.549517036324131e-11 0
2.999999930178127 3.335942767293033e-09 0
2.193645593256263 0.2781677172788092 0
2.661472821092308 0.2049745180357939 0
3.039057519429302 -7.937529599327207e-05 0
2.827895477009018 0.09654724703432993 0
2.942362304746012 0.05230979026645351 0
2.985606393774375 0.01196339831048272 0
2.997414072410066 0.004210154139718147 0
3.000000096531648 -1.240027750160659e-07 0
3.000971955600374 -0.0002850016734863994 0
3.000578274559595 -0.0004419212911359144 0
3.0006858596212 -0.0002084601577319238 0
3.000136006894797 -0.0002438210103680031 0
3.000319283804047 -0.0005855494501567975 0
2.999980618310501 2.255463617179817e-07 0
3.000007378646212 -7.208539364241388e-05 0
2.999971269162673 2.729784477639428e-05 0
3.000000000001146 -1.453303262430947e-12 0
2.999999999981414 -6.470756633845591e-12 0
2.999987902409668 3.138767107537772e-05 0
2.999992072840616 3.955734236009005e-05 0
2.999994823713637 -4.854380868802485e-07 0
3.00000000782914 -1.585136680081911e-09 0
3.000000307635977 2.234036593540594e-06 0
3.000000782905391 3.743200334151866e-06 0
2.999999999971652 9.645204158186956e-12 0
3.000123348661347 -4.939024552535952e-06 0
2.999999998936699 3.686390819818009e-05 0
3.000001122589516 7.697908935534987e-08 0
2.999999947431606 -2.822003116541071e-06 0
3.000000353316576 -2.122251628379327e-06 0
3.048247146093896 -0.0001471712584656019 0
3.000005296292746 2.549815059374971e-05 0
3.000000468838606 -3.080721652438308e-06 0
3.00186556076107 -0.0005350985519746697 0
3.000315913201827 -0.0002367541123949508 0
3.000007367847832 1.117685153624343e-05 0
2.999998992761189 -3.123499142471479e-06 0
3.000000014589788 2.730658120401788e-07 0
2.999999910724648 4.0070122171372e-07 0
2.999999388436865 -2.375076553669663e-07 0
2.999999871449908 4.198500762078735e-07 0
2.999998417223689 -1.049333470068966e-06 0
3.000000361004861 3.958438391089923e-07 0
2.999999550890795 5.355514569562233e-07 0
3.00000021142447 6.002356711056828e-09 0
3.000000378143859 3.923676456992137e-07 0
2.999999945117837 -1.159446058992932e-07 0
3.000000216897847 -1.387068385016484e-07 0
2.999999933549441 5.043305690952819e-09 0
2.999999958030434 -9.518634283741576e-08 0
2.999999999850338 3.223779969885852e-08 0
2.999999938768212 4.227433513312325e-08 0
3.000000015665076 -6.430182196120581e-09 0
3.000000007289195 8.226980805216175e-09 0
3.000000000186078 -4.538373233472522e-09 0
3.000000012232127 -8.785375584012747e-09 0
2.999999996428438 2.599439430231574e-09 0
2.99999999547253 1.752866245187026e-09 0
3.000000001195267 -4.130240548040644e-10 0
2.999999999953693 2.131913291820405e-10 0
3.00000000005029 -1.140257418896012e-10 0
3.000000000569358 -2.299412400712195e-10 0
2.999999999801648 9.508438237058488e-11 0
2.999999999717573 8.632213793020934e-11 0
3.000000000102053 -3.662733638728564e-11 0
3.000000000097328 -2.510917250158229e-11 0
2.999999999964682 1.078350410943892e-11 0
2.999999999971456 6.580114090929832e-12 0
3.00000000000997 -2.78083634374347e-12 0
3.000000000007953 -1.676790396141166e-12 0
2.999999999997389 6.956657199921045e-13 0
2.99999999999779 4.213470625445279e-13 0
3.000000000000705 -1.791737834949494e-13 0
3.000000000000587 -9.914842270985115e-14 0
2.999999999999804 4.74540305941569e-14 0
2.999999999999852 2.115098641273258e-14 0
3.000000000000058 -1.136776517941359e-14 0
3.000000000000035 -4.295966176373958e-15 0
2.999999999999983 3.063362019535151e-15 0
2.999999999999989 8.089657667648275e-16 0
3.000000000000002 -2.031543885071016e-15 0
3.000000000000007 -1.364700452953204e-15 0
3.000000000000001 7.027995160768917e-15 0
2.999999999999985 6.005703463759291e-15 0
3.000000000000007 -2.328316284633256e-14 0
3.000000000000004 -1.611881149382369e-14 0
2.999999999999979 4.780402591984101e-14 0
3.000000000000077 2.800385743061996e-14 0
2.999999999999932 -5.224767946051917e-14 0
2.999999999999984 -3.369509898693087e-14 0
3.00000000000004 -2.964694295620123e-14 0
2.999999999999104 3.691910690180771e-14 0
3.000000000002687 2.455985165595329e-13 0
3.000000000000673 -1.248374831268702e-13 0
2.999999999986208 -4.222377946889917e-13 0
3.00000000001873 6.284824707183926e-13 0
3.000000000015576 2.076035772088044e-14 0
2.999999999912248 -2.521744688545041e-12 0
3.000000000125326 1.454631024465988e-12 0
3.000000000060887 9.328321842637877e-12 0
2.999999999383665 -3.455592136889736e-12 0
3.000000000798754 -3.661463538521124e-11 0
3.000000001007045 2.577107461749953e-12 0
2.99999999647601 1.647073597476762e-10 0
2.999999998989493 1.76126940507282e-11 0
3.000000012821249 -7.087368674051278e-10 0
3.000000008680682 -1.741151442245315e-10 0
2.999999950330204 1.85639338098261e-09 0
2.999999933897285 1.053788550785542e-09 0
3.000000114734379 4.285360473664887e-09 0
3.057318491615367 0.0001164095050329837 0
3.000000411801454 -2.393584923484892e-09 0
3.00048194022787 -0.0002641521448677286 0
2.999909249164079 2.551977901038556e-05 0
2.999847374962642 3.641730221228222e-05 0
2.999994178325368 7.237367604870745e-06 0
2.999999996342236 -1.734659876586195e-10 0
3.000000000019907 3.877069324713416e-13 0
3.000000006929775 2.911996770127631e-08 0
2.999999999999896 -1.235259846971154e-13 0
3.000000000000004 8.512959037988719e-16 0
3.000002055664701 2.235908292910237e-06 0
3.00000589325297 -1.68942079353605e-06 0
3.000004657451815 -1.693849922130948e-06 0
3.000000000000546 -1.814422578565442e-13 0
3.000000000232407 1.192747872032992e-09 0
3.000000000047792 -2.863618249863784e-11 0
3.000000107346561 -1.325222174642085e-08 0
2.999999987369768 7.987451249050354e-08 0
3.000000006863628 -1.867570903060289e-08 0
3.00000022430412 -5.373395529984138e-08 0
3.000000174003929 -1.88442839961201e-07 0
3.000000121503233 -3.12245269351507e-09 0
3.000000180546964 3.950903435650732e-08 0
2.999999999381203 1.901032248895443e-10 0
2.999999999986714 1.872699083954535e-12 0
2.999999999999985 -2.847469348871847e-15 0
3.000000000000039 2.208487359206634e-14 0
2.999999848505154 -2.52092467872666e-07 0
2.99999982184963 -2.212910173194471e-07 0
3.000000000001836 7.158831183214692e-15 0
2.99999999944594 -1.837470180049116e-12 0
2.999999904413889 4.314158552629739e-09 0
2.999976738633271 9.296077848015452e-06 0
2.999998189608746 -5.939986425863161e-07 0
3.000000537669171 1.460584386474624e-08 0
2.999997958035326 4.942251273120269e-08 0
3.000000002895864 -3.634318187422396e-08 0
2.999999998393794 -4.355588269181251e-08 0
3.00000000307927 -1.088472474096258e-08 0
3.000000026309635 -4.995305857671551e-08 0
2.999999995074199 7.599125205082988e-09 0
3.000000013919321 -2.350873455090012e-08 0
2.99999999566713 5.806466020157246e-09 0
2.999999990530599 5.665863492645964e-09 0
3.000000002313236 -1.254414397368346e-09 0
2.999999995389266 5.704833656517184e-09 0
3.000000000651305 -1.100266169817486e-09 0
3.000000003312534 -1.7795767740677e-09 0
1.240292222736536 0.0626945466786431 0
3.00037611672834 -0.0001222904864146404 0
2.99999999922227 5.658398910339785e-10 0
3.000003775644063 -4.690897242218823e-07 0
2.999921653419027 -1.816453125845444e-05 0
2.999999639742775 1.827562066669538e-07 0
3.001861104643381 0.0007482063099643036 0
2.999999999298719 -1.611750523285053e-10 0
3.000000384861337 5.111499257215671e-10 0
3.000000129119405 -4.383919156438089e-10 0
2.999995533473323 -3.205410979895193e-09 0
3.000000876874763 -4.333410227579234e-07 0
2.860608843522015 0.05054741871093109 0
2.999999999259384 9.246739350178926e-09 0
2.999996727976749 1.188867059455995e-07 0
3.000000000295105 3.475240792739576e-11 0
3.000000020656677 -4.746822859911993e-09 0
3.000013939714556 -3.405917476450136e-06 0
2.999997569759993 9.306820050953331e-07 0
3.000000000001544 5.982464580112263e-13 0
2.999999999995438 -4.058812190829231e-11 0
2.999999999998105 -4.092255156269744e-13 0
2.999999999999985 1.593931899843421e-15 0
3.00000000000003 -1.145135858181857e-14 0
3.000000000010013 -3.498572304461283e-12 0
3.00000000000081 -3.269273094039419e-13 0
3.00000000000004 1.905885848138753e-14 0
2.999999999258442 3.04556367645849e-11 0
3.00000000001075 2.043977757877381e-13 0
2.999999999999817 3.355190941979666e-15 0
3.00000245749266 -2.433323834126003e-07 0
3.000000010427367 -3.582544905634148e-10 0
2.999999999657353 1.314650126443937e-10 0
2.999999999999716 1.02418107581337e-13 0
3.00000000000002 -9.848264872954505e-15 0
2.9999999945902 -3.980589364754754e-10 0
3.000000000006167 1.191968759518075e-12 0
3.000000000000811 -9.762651806426965e-15 0
3.000000000039436 7.404501563045023e-13 0
3.000000000000001 -4.50439598392935e-16 0
3.000000000000004 -6.961007467803468e-15 0
2.999999999999864 2.19621434129362e-13 0
2.99999999966783 -8.494952157700029e-09 0
3.000000000000058 3.97860644135885e-14 0
3 2.507942863292213e-15 0
2.999999999999255 5.677959075062806e-14 0
2.999999999837001 3.084018663223459e-11 0
3.000000000085877 -5.505227798342545e-12 0
3.000000000003552 9.972189465515515e-13 0
2.999999972430238 2.251414917175637e-08 0
2.999999878042712 4.262412098424825e-09 0
3.00000001055002 -1.782263381195666e-08 0
2.999948259585322 4.805937762692383e-06 0
3.002404997556186 2.749135609529448e-05 0
2.99999999967378 -1.830264613616762e-11 0
2.999999715224519 1.395604202646766e-07 0
2.999999999260778 5.179957563311663e-10 0
3.000205436442767 0.0008552050816293978 0
3.000000091959732 -2.069398173199215e-08 0
3.000000000346299 -1.25195316945575e-10 0
3.000000001071361 1.68678588640313e-09 0
3.000000002555979 -2.157837361039693e-09 0
3.000020200581805 -7.155964937864003e-08 0
3.000000505267313 -2.255221981419441e-08 0
2.999999911128744 6.243866073296601e-09 0
3.000000001314384 -1.466915345688646e-09 0
3.000000000006122 -3.872574561938331e-11 0
2.999999994165541 4.388906458316811e-08 0
3.000040479605616 -2.987359408597886e-07 0
3.0000000000763 -1.115132626697409e-10 0
3.000004056078993 -2.104521322919408e-06 0
3.000022020571683 -5.176619655201776e-06 0
2.99999385677475 1.254527685912282e-06 0
2.999999887154289 6.012704856795851e-08 0
3.000000240449531 4.052858285529786e-07 0
3.000042063688633 1.734341350986523e-07 0
3.049439822362093 0.0003952612573549324 0
3.036136506626595 -0.0004727287802313056 0
2.999999296153226 1.709650279718905e-07 0
2.999999999924618 5.590611262294261e-11 0
2.999998581816756 3.076877930705261e-05 0
2.999931523174645 -0.0001434685146607522 0
2.999948869820521 2.358060438436787e-05 0
3.00002436014327 -6.037528993232841e-07 0
3.000000063224032 2.617792819204317e-07 0
2.739327312369334 0.08403472493957248 0
3.000001974052626 -1.750302268167665e-06 0
3.000000103157735 -2.158378379766822e-08 0
3.000000001976186 -6.914829624249796e-09 0
2.999999991130411 -4.107576524716891e-09 0
3.000000455729035 -1.724205795531691e-08 0
3.000000000014964 5.547323741417333e-12 0
3.000045721339184 -0.0004334555402228925 0
2.999868483601333 -1.188086494179372e-05 0
3.000512109688495 -0.0003499630962382726 0
2.999967086146829 6.085211696540694e-06 0
3.000035501809953 -4.143878050604634e-07 0
3.0000000000059 -1.087499817305881e-11 0
2.99999999993012 -3.157121217743604e-11 0
3.000000101390646 -8.145910599010006e-10 0
2.999999953515924 2.390270991900022e-09 0
3.000000010165036 -1.056418869195052e-09 0
3.000000012516977 -8.652541805032075e-10 0
2.999999999485079 1.201376939483324e-10 0
2.999999996587501 2.196947876501353e-10 0
3.000000000861237 -2.285340253586975e-11 0
3.000000000565182 -5.632212491682505e-11 0
2.999999999423367 7.429542410606891e-12 0
3.00000000013072 1.603760812061476e-11 0
3.000000000113139 -4.443791608516115e-12 0
2.999999999916162 -1.443597311722878e-12 0
3.000000000018655 1.091859700632994e-12 0
3.000000000010907 -1.078228790437668e-12 0
2.999999999983704 4.744805980146975e-13 0
3.000000000004588 3.197734422926042e-13 0
3.00000000000443 -5.44593308208653e-13 0
2.999999999997141 1.417053023262836e-13 0
2.999999999999484 3.073273249200131e-13 0
3.000000000000846 -1.692534913514756e-13 0
2.999999999999901 -1.406543754985023e-13 0
2.999999999999832 1.033202628691211e-13 0
3.000000000000091 4.949842373907013e-14 0
3.000000000000017 -5.386349634049799e-14 0
2.999999999999958 -6.324870659213464e-15 0
3.000000000000005 2.462439921319006e-14 0
3.000000000000016 -6.63285323475856e-15 0
2.999999999999999 -9.312395576987864e-15 0
2.999999999999995 7.27348300699387e-15 0
3 2.770265695950535e-15 0
3.000000000000003 -4.680830233550821e-15 0
3.000000000000003 -8.425790849540738e-16 0
2.999999999999995 3.286384921419751e-15 0
2.999999999999998 6.140200732265593e-16 0
3.000000000000004 -2.683510606567663e-15 0
2.999999999999992 2.76472278565581e-15 0
3.000000000000026 -8.998395845614209e-15 0
3.000000000000031 -1.692881657036303e-14 0
2.999999999999872 6.370891418904041e-14 0
2.999999999999965 4.120253262657474e-14 0
3.000000000000244 -1.93181090768307e-13 0
2.999999999999901 -3.256082279305239e-14 0
3.000000000000127 2.641135892791562e-13 0
3.000000000000443 -1.608050666931524e-13 0
2.999999999998152 4.173924680944823e-13 0
2.999999999999649 6.201953348282533e-13 0
3.000000000003476 -2.935679160644617e-12 0
2.999999999998189 -5.357563600418462e-13 0
3.000000000003427 5.166347469618632e-12 0
3.000000000004177 -2.140322230085499e-12 0
2.999999999977745 4.510056187258986e-12 0
3.000000000006612 6.151721707109121e-12 0
2.99999999999973 -3.430683403495483e-11 0
2.999999999967814 1.955956294460868e-12 0
3.000000000138346 2.696539139915962e-11 0
2.999999999997891 -2.823335012723984e-11 0
2.999999999876321 1.237884367796698e-10 0
3.000000000133081 1.165501587137384e-11 0
2.999999999491735 -1.767917350962626e-10 0
2.999999999941075 6.90883552701859e-11 0
3.000000000656931 -2.263212177818293e-10 0
2.99999999966184 -1.019553199148095e-10 0
3.000000001060342 7.265996459114058e-10 0
3.00000000033625 -5.173712401569851e-11 0
2.999999997663301 -3.533471341069811e-10 0
3.00000000090892 5.381252967246573e-10 0
2.999999997008702 -2.860465195112382e-09 0
2.999999999750094 2.150591582242026e-10 0
3.00000000186421 1.609385616808431e-10 0
2.999999997897246 -1.812478500773204e-09 0
3.000000007804918 8.27378163313617e-09 0
2.999999997508314 -2.543019375261439e-09 0
3.000021735740658 -5.872087380344767e-08 0
2.99997281143024 -3.234085573378033e-06 0
2.99999998940155 8.298146209050515e-09 0
3.000000005838517 -2.112132330134598e-09 0
3.000010894777487 -2.778659054247815e-06 0
3.000056928015047 -8.775475162107489e-06 0
2.999741468062823 7.251476916907775e-06 0
3.000000008527845 1.213306606971672e-08 0
2.999999998683273 -9.496552640626283e-10 0
2.999999979990027 -2.551067038893613e-08 0
3.00000033610743 -9.70454987696875e-08 0
2.999600588648928 1.04371731802294e-06 0
2.999975122131255 -6.851370371798218e-06 0
2.999262791459523 -1.592882271422974e-05 0
2.99974192629477 8.179352607256482e-08 0
3.000045103524508 5.402716798469922e-08 0
2.999988539291692 2.857641386212024e-06 0
3.000021347242603 -6.323741645056501e-07 0
3.000049382603308 -1.395051301632026e-07 0
3.000000728020712 -8.359147267688092e-07 0
3.000030976022581 -2.249699304828333e-07 0
2.999996719906875 -1.684990949512643e-09 0
2.999923379509311 6.811090705766422e-07 0
2.999997872324219 5.623804068810915e-08 0
3.000000077006436 1.252584242533704e-08 0
2.999999411044502 3.518634011049669e-07 0
3.000000051268026 -5.568308517229807e-07 0
2.999999993816107 4.226873287293307e-09 0
3.000000000452869 2.800186191469246e-10 0
2.999999755454143 3.944686969094607e-09 0
2.999999999999983 1.481156828964373e-14 0
2.523619871540908 -0.004873890676102613 0
3.000000511805375 2.230618868069471e-08 0
3.000000133324288 3.876499276030998e-10 0
2.999999917280669 -7.591931432685412e-09 0
2.999999950866007 -1.267907827663608e-09 0