<?xml version="1.0"?>
<VTKFile type="UnstructuredGrid">
  <UnstructuredGrid>
  <Piece NumberOfPoints="1224"  NumberOfCells="2290">
    <Points>
      <DataArray type="Float64" NumberOfComponents="3" format="ascii">
0 0 0
0.6 0 0
0.6 0.2 0
56 0.2 0
56 1 0
0 1 0
0.05454545454535233 0 0
0.1090909090906768 0 0
0.1636363636359771 0 0
0.2181818181812728 0 0
0.2727272727265793 0 0
0.3272727272720317 0 0
0.3818181818176247 0 0
0.4363636363632168 0 0
0.4909090909088285 0 0
0.5454545454544089 0 0
0.6 0.03999999999991203 0
0.6 0.07999999999979179 0
0.6 0.1199999999997886 0
0.6 0.1599999999998948 0
5.559438949647161 0.2 0
7.114103740545556 0.2 0
8.424974832223343 0.2 0
9.655648899198823 0.2 0
10.83700469508311 0.2 0
11.98719132505853 0.2 0
13.11542905972741 0.2 0
14.22853219232312 0.2 0
15.33073644169166 0.2 0
16.42487746913537 0.2 0
17.51297573429452 0.2 0
18.59648478222401 0.2 0
19.6764611272724 0.2 0
20.75371901665851 0.2 0
21.8288490662488 0.2 0
22.90229909387673 0.2 0
23.97442311860134 0.2 0
25.04549467052507 0.2 0
26.11572804017206 0.2 0
27.18529116227929 0.2 0
28.25431727121999 0.2 0
29.32291181072505 0.2 0
30.39115905930656 0.2 0
31.45912617345876 0.2 0
32.52686711575135 0.2 0
33.59442511336466 0.2 0
34.6618350390761 0.2 0
35.7291249399752 0.2 0
36.7963175093095 0.2 0
37.86343106054449 0.2 0
38.93048044592174 0.2 0
39.99747768512903 0.2 0
41.06443254438154 0.2 0
42.13135294583437 0.2 0
43.1982453192114 0.2 0
44.26511489473428 0.2 0
45.33196607479496 0.2 0
46.39880234798552 0.2 0
47.46562646014106 0.2 0
48.53244087404707 0.2 0
49.59924750533183 0.2 0
50.6660479434541 0.2 0
51.73284355159345 0.2 0
52.79963565414717 0.2 0
53.86642516436398 0.2 0
54.93321301299182 0.2 0
56 0.2533333333332341 0
56 0.3066666666664725 0
56 0.3599999999996274 0
56 0.413333333332804 0
56 0.4666666666659806 0
56 0.5199999999991571 0
56 0.5733333333323336 0
56 0.6266666666656895 0
56 0.6799999999991551 0
56 0.7333333333326146 0
56 0.7866666666660802 0
56 0.8399999999995775 0
56 0.8933333333330373 0
56 0.9466666666664969 0
54.93777288137875 1 0
53.8755465590549 1 0
52.81332187045345 1 0
51.75109974926341 1 0
50.68888118332585 1 0
49.62666730028773 1 0
48.56445952312172 1 0
47.50225926532752 1 0
46.44006874151745 1 0
45.37788998938054 1 0
44.3157258695632 1 0
43.25357998362147 1 0
42.19145618521456 1 0
41.12935994471601 1 0
40.06729704655682 1 0
39.00527572199791 1 0
37.9433046123171 1 0
36.88139648431718 1 0
35.8195636400441 1 0
34.75782560445843 1 0
33.69620149150848 1 0
32.63471992610388 1 0
31.57341285457657 1 0
30.51231943606399 1 0
29.45148923459474 1 0
28.39098317772716 1 0
27.33087574165758 1 0
26.27125959590387 1 0
25.21225121165515 1 0
24.15398463783531 1 0
23.09662933455871 1 0
22.04041393060664 1 0
20.98557263202728 1 0
19.93244644908789 1 0
18.88141907337524 1 0
17.83296745437538 1 0
16.78767708308714 1 0
15.74625247961949 1 0
14.70955696643642 1 0
13.67859437284697 1 0
12.65454569912351 1 0
11.63877011317232 1 0
10.63261142713766 1 0
9.637389918509996 1 0
8.654374215649394 1 0
7.685502765988375 1 0
6.733701871826949 1 0
5.80501495467165 1 0
4.910251452241912 1 0
4.066453622839606 1 0
3.284907982464926 1 0
2.581141043123609 1 0
1.961229069545552 1 0
1.458101533022281 1 0
1.044954794654623 1 0
0.7128007699496962 1 0
0.4429386202824123 1 0
0.2101877359796799 1 0
0 0.9473684210524125 0
0 0.8947368421048248 0
0 0.8421052631576025 0
0 0.7894736842105994 0
0 0.7368421052635962 0
0 0.6842105263165927 0
0 0.6315789473695894 0
0 0.5789473684225861 0
0 0.5263157894755828 0
0 0.4736842105282874 0
0 0.4210526315806998 0
0 0.3684210526331123 0
0 0.3157894736855248 0
0 0.2631578947379374 0
0 0.21052631579035 0
0 0.1578947368427625 0
0 0.1052631578951749 0
0 0.05263157894758741 0
3.741643898568545 0.955462795473483 0
4.453589034418096 0.2394317949808221 0
10.15036007013232 0.9557759867023439 0
47.02893638489314 0.9559758769411787 0
42.72250608084964 0.9559648099769389 0
38.47426310684043 0.9559648099769389 0
34.22695267196522 0.9559648099772646 0
30.03641518641751 0.9560078743553572 0
25.79493087427711 0.9561420672712786 0
21.51230050127872 0.95627738856474 0
17.30882943345778 0.9563034567995272 0
0.1118409222285651 0.5498854761242812 0
13.67538636129156 0.2442383967812095 0
44.83116177477727 0.2421522008426663 0
40.53092714016783 0.243586373321511 0
36.26276336975724 0.24363095694403 0
31.99313949361711 0.2436741865527954 0
27.72007428733145 0.2437170671454607 0
23.43884972927656 0.2437587738062726 0
19.13738075009726 0.2442249255777628 0
2.344129835227127 0.2417757800606361 0
4.276722421112326 0.2785115072887754 0
54.98726997607855 0.5995349944823752 0
2.736722261514062 0.2791940688436214 0
4.126865857869409 0.3180386921514113 0
2.864796003071563 0.3181181454258206 0
3.964138127358722 0.3577335228902347 0
49.13734283732546 0.2416532643303031 0
2.868483342728542 0.3576683284772433 0
3.789582030454838 0.3976917483469583 0
4.854265832125299 0.3977458985417416 0
4.591282066816913 0.4382323507424581 0
5.624278191498811 0.4382172989803606 0
5.314461322953961 0.4790536480492864 0
6.315909062041515 0.4792447281197085 0
4.376645224219761 0.4817209888486334 0
1.680718188216548 0.9660670791366374 0
13.16560889804009 0.9559852449915113 0
5.972301877746705 0.5203953730037822 0
6.95638360938958 0.5205851219036783 0
50.23665385799941 0.9563165682871465 0
0.06434610746576133 0.2894490564426765 0
6.58013678260434 0.5622881188475496 0
7.557856360955458 0.5621981517123112 0
0.1361714483581017 0.7091098825652095 0
0.2949392270633884 0.04723774929726795 0
7.951017452645889 0.5200372393771872 0
8.542766863091744 0.562505099575485 0
7.164823633759021 0.6041261864689124 0
6.204577363365179 0.6041581669226386 0
55.04596879466078 0.4393531299125908 0
8.966685740480811 0.5199435586712576 0
9.54809870809148 0.5624873891767795 0
1.875356930658894 0.3174350849704655 0
1.982902298845183 0.3576870257641042 0
9.989687171319323 0.5195844107098163 0
10.56724023196847 0.5621174250913318 0
6.768951168464452 0.6460588488486728 0
5.831773119779842 0.6462390077748084 0
10.09719812006281 0.6067218912904607 0
11.13182417364847 0.6047738158182728 0
11.59540227851487 0.5617915498272615 0
12.15684934926793 0.6045430073239006 0
12.63280754246369 0.5614360364847856 0
13.18975879514965 0.6046345614192383 0
13.67292828445444 0.5613114208485291 0
14.22878843935966 0.604758732930365 0
14.70803621447149 0.5597386087889248 0
15.27434121441089 0.6042836632406788 0
15.77879843308584 0.5607219500906248 0
16.32738478651703 0.6043040651294929 0
16.83485881162898 0.5598592244124957 0
17.38138429644185 0.6040638744783449 0
17.89295095849592 0.5595216793632644 0
18.43749694625026 0.6038781229769293 0
18.95228609990126 0.5600604284234054 0
19.49514044616281 0.6038664424080111 0
20.00266069718217 0.55874807111347 0
20.55308335344255 0.6035341865995129 0
21.0677203520865 0.5586520846649797 0
21.61418557527766 0.6034054551655909 0
22.13565371054264 0.558835304845746 0
22.67622557978277 0.6032503772964327 0
23.199499789815 0.5587079795953892 0
23.73859299998246 0.6030926920218221 0
24.26283561211587 0.5580480170404921 0
24.80126599861298 0.6028436706904448 0
25.32639405007277 0.5577680566445021 0
25.86428573643715 0.6026435181305781 0
26.39015654663542 0.5575726351194972 0
26.92763676124282 0.6024617369905624 0
27.45410675888193 0.5573842056888257 0
27.99132766787363 0.6022873884346892 0
28.51821122429286 0.5572075399874397 0
29.05516311822074 0.6021111834258887 0
29.58242595019477 0.5570246051384745 0
30.11912437011392 0.6019307913070558 0
30.64671948767272 0.5568475628142857 0
31.18323387943636 0.6017522495250318 0
31.71108612801252 0.5566653603575672 0
32.24749637659738 0.601574020443024 0
32.77551521463461 0.5564884669211013 0
33.31180490422438 0.601395113412113 0
33.83998441139411 0.5563067813822595 0
34.37607113370531 0.6012129143420911 0
34.9044704316459 0.5561292537946573 0
35.44047306083753 0.601032757987411 0
35.96899632195191 0.5559477304122714 0
36.50504096273085 0.600855564813206 0
37.03356563710346 0.5557710179709322 0
37.56955908656606 0.6006760179252703 0
38.0981416330533 0.5555900146741853 0
38.6340473947123 0.6004921726308964 0
39.16271977460357 0.5554125217101814 0
39.69858674928036 0.6003111949874665 0
40.22731175667607 0.5552312296013228 0
40.76308312263775 0.6001298880828497 0
41.29190841113331 0.5550546947866846 0
41.82767084118501 0.599950595338254 0
42.35656808985728 0.5548708301001631 0
42.8924081873399 0.5997713467128002 0
43.42143400311269 0.5547000681173012 0
43.95739642057746 0.5996004731097838 0
44.48665282325823 0.5545095609010697 0
45.02265114470866 0.5994220729206983 0
45.55248225411885 0.5543494429014709 0
46.08825387482113 0.5993228147833797 0
46.61940498621211 0.5541346321759457 0
47.15659359076114 0.5992395038842441 0
47.6892109371925 0.5540180644105763 0
55.14232513188902 0.7598964409357507 0
48.22889984853289 0.5990918128353608 0
1.261918227068759 0.3159793431387367 0
1.381742323458774 0.357715436029677 0
0.8841793931805847 0.3157219358498637 0
0.974663958231163 0.3576135465858128 0
44.49013851517737 0.643990885448769 0
40.23424458689174 0.6444881680698032 0
14.77367031904834 0.6487487015028032 0
35.97646642381233 0.6452136474256573 0
31.71949859450687 0.6459229900926835 0
0.6414654730060854 0.3150377509381005 0
0.7040676705976832 0.3574251905568473 0
1.023394508042495 0.4002519798591844 0
27.46461652115742 0.6466170330762969 0
18.98065394390031 0.6479317947648683 0
23.21582126296274 0.6473399689389928 0
11.6904902132092 0.6483605753517908 0
6.379384716527992 0.6883083412871458 0
5.462268888118418 0.6885103796531055 0
48.76218871989651 0.5527758280498023 0
16.26721009619205 0.5148848291986879 0
47.69439866116156 0.6438096025956825 0
48.76869446213344 0.6437140715169269 0
21.58440476856449 0.5138574114565649 0
25.84439051810478 0.5115839513085039 0
30.10368921999514 0.5109012431757174 0
34.36318156907247 0.510388685431229 0
0.7372343145427811 0.4001745965167012 0
1.035051009287254 0.4433206937839571 0
38.6227608006506 0.5096846626216972 0
[...]
    <PointData>
      <DataArray type="Float64" NumberOfComponents="3" Name="Velocity" format="ascii">
-nan -nan 0
-nan -nan 0
-nan -nan 0
-nan -nan 0
-nan -nan 0
-nan -nan 0
-nan -nan 0
-nan -nan 0
-nan -nan 0
-nan -nan 0
-nan -nan 0
-nan -nan 0
-nan -nan 0
-nan -nan 0
-nan -nan 0
-nan -nan 0
-nan -nan 0
-nan -nan 0
-nan -nan 0
-nan -nan 0
-nan -nan 0
-nan -nan 0
-nan -nan 0
-nan -nan 0
-nan -nan 0
-nan -nan 0
-nan -nan 0
-nan -nan 0
-nan -nan 0
-nan -nan 0
-nan -nan 0
-nan -nan 0
-nan -nan 0
-nan -nan 0
-nan -nan 0
-nan -nan 0
-nan -nan 0
-nan -nan 0
-nan -nan 0
-nan -nan 0
-nan -nan 0
-nan -nan 0
-nan -nan 0
-nan -nan 0
-nan -nan 0
-nan -nan 0
-nan -nan 0
-nan -nan 0
-nan -nan 0
-nan -nan 0
-nan -nan 0
-nan -nan 0
-nan -nan 0
-nan -nan 0
-nan -nan 0
-nan -nan 0
-nan -nan 0
-nan -nan 0
-nan -nan 0
-nan -nan 0
-nan -nan 0
-nan -nan 0
-nan -nan 0
-nan -nan 0
-nan -nan 0
-nan -nan 0
-nan -nan 0
-nan -nan 0
-nan -nan 0
-nan -nan 0
-nan -nan 0
-nan -nan 0
-nan -nan 0
-nan -nan 0
-nan -nan 0
-nan -nan 0
-nan -nan 0
-nan -nan 0
-nan -nan 0
-nan -nan 0
-nan -nan 0
-nan -nan 0
-nan -nan 0
-nan -nan 0
-nan -nan 0
-nan -nan 0
-nan -nan 0
-nan -nan 0
-nan -nan 0
-nan -nan 0
-nan -nan 0
-nan -nan 0
-nan -nan 0
-nan -nan 0
-nan -nan 0
-nan -nan 0
-nan -nan 0
-nan -nan 0
-nan -nan 0
-nan -nan 0
-nan -nan 0
-nan -nan 0
-nan -nan 0
-nan -nan 0
-nan -nan 0
-nan -nan 0
-nan -nan 0
-nan -nan 0
-nan -nan 0
-nan -nan 0
-nan -nan 0
-nan -nan 0
-nan -nan 0
-nan -nan 0
-nan -nan 0
-nan -nan 0
-nan -nan 0
-nan -nan 0
-nan -nan 0
-nan -nan 0
-nan -nan 0
-nan -nan 0
-nan -nan 0
-nan -nan 0
-nan -nan 0
-nan -nan 0
-nan -nan 0
-nan -nan 0
-nan -nan 0
-nan -nan 0
-nan -nan 0
-nan -nan 0
-nan -nan 0
-nan -nan 0
-nan -nan 0
-nan -nan 0
-nan -nan 0
-nan -nan 0
-nan -nan 0
-nan -nan 0
-nan -nan 0
-nan -nan 0
-nan -nan 0
-nan -nan 0
-nan -nan 0
-nan -nan 0
-nan -nan 0
-nan -nan 0
-nan -nan 0
-nan -nan 0
-nan -nan 0
-nan -nan 0
-nan -nan 0
-nan -nan 0
-nan -nan 0
-nan -nan 0
-nan -nan 0
-nan -nan 0
-nan -nan 0
-nan -nan 0
-nan -nan 0
-nan -nan 0
-nan -nan 0
-nan -nan 0
-nan -nan 0
-nan -nan 0
-nan -nan 0
-nan -nan 0
-nan -nan 0
-nan -nan 0
-nan -nan 0
-nan -nan 0
-nan -nan 0
-nan -nan 0
-nan -nan 0
-nan -nan 0
-nan -nan 0
-nan -nan 0
-nan -nan 0
-nan -nan 0
-nan -nan 0
-nan -nan 0
-nan -nan 0
-nan -nan 0
-nan -nan 0
-nan -nan 0
-nan -nan 0
-nan -nan 0
-nan -nan 0
-nan -nan 0
-nan -nan 0
-nan -nan 0
-nan -nan 0
-nan -nan 0
-nan -nan 0
-nan -nan 0
-nan -nan 0
-nan -nan 0
-nan -nan 0
-nan -nan 0
-nan -nan 0
-nan -nan 0
-nan -nan 0
-nan -nan 0
-nan -nan 0
-nan -nan 0
-nan -nan 0
-nan -nan 0
-nan -nan 0
-nan -nan 0
-nan -nan 0
-nan -nan 0
-nan -nan 0
-nan -nan 0
-nan -nan 0
-nan -nan 0
-nan -nan 0
-nan -nan 0
-nan -nan 0
-nan -nan 0
-nan -nan 0
-nan -nan 0
-nan -nan 0
-nan -nan 0
-nan -nan 0
-nan -nan 0
-nan -nan 0
-nan -nan 0
-nan -nan 0
-nan -nan 0
-nan -nan 0
-nan -nan 0
-nan -nan 0
-nan -nan 0
-nan -nan 0
-nan -nan 0
-nan -nan 0
-nan -nan 0
-nan -nan 0
-nan -nan 0
-nan -nan 0
-nan -nan 0
-nan -nan 0
-nan -nan 0
-nan -nan 0
-nan -nan 0
-nan -nan 0
-nan -nan 0
-nan -nan 0
-nan -nan 0
-nan -nan 0
-nan -nan 0
-nan -nan 0
-nan -nan 0
-nan -nan 0
-nan -nan 0
-nan -nan 0
-nan -nan 0
-nan -nan 0
-nan -nan 0
-nan -nan 0
-nan -nan 0
-nan -nan 0
-nan -nan 0
-nan -nan 0
-nan -nan 0
-nan -nan 0
-nan -nan 0
-nan -nan 0
-nan -nan 0
-nan -nan 0
-nan -nan 0
-nan -nan 0
-nan -nan 0
-nan -nan 0
-nan -nan 0
-nan -nan 0
-nan -nan 0
-nan -nan 0
-nan -nan 0
-nan -nan 0
-nan -nan 0
-nan -nan 0
-nan -nan 0
-nan -nan 0
-nan -nan 0
-nan -nan 0
-nan -nan 0
-nan -nan 0
-nan -nan 0
-nan -nan 0
-nan -nan 0
-nan -nan 0
-nan -nan 0
-nan -nan 0
-nan -nan 0
-nan -nan 0
-nan -nan 0
-nan -nan 0
-nan -nan 0
-nan -nan 0
-nan -nan 0
-nan -nan 0
-nan -nan 0
-nan -nan 0
-nan -nan 0
-nan -nan 0
-nan -nan 0
-nan -nan 0
-nan -nan 0
-nan -nan 0
-nan -nan 0
-nan -nan 0
-nan -nan 0
-nan -nan 0
-nan -nan 0
-nan -nan 0
-nan -nan 0
-nan -nan 0
-nan -nan 0
-nan -nan 0
-nan -nan 0
-nan -nan 0
-nan -nan 0
-nan -nan 0
-nan -nan 0
-nan -nan 0
-nan -nan 0
-nan -nan 0
-nan -nan 0
-nan -nan 0
-nan -nan 0
-nan -nan 0
-nan -nan 0
-nan -nan 0
-nan -nan 0
-nan -nan 0
-nan -nan 0
-nan -nan 0
-nan -nan 0
-nan -nan 0
-nan -nan 0
-nan -nan 0
-nan -nan 0
-nan -nan 0
-nan -nan 0
-nan -nan 0
-nan -nan 0
-nan -nan 0
-nan -nan 0
-nan -nan 0
-nan -nan 0
-nan -nan 0
-nan -nan 0
-nan -nan 0
-nan -nan 0
-nan -nan 0
-nan -nan 0
-nan -nan 0
-nan -nan 0
-nan -nan 0
-nan -nan 0
-nan -nan 0
-nan -nan 0
-nan -nan 0
-nan -nan 0
-nan -nan 0
-nan -nan 0
-nan -nan 0
-nan -nan 0
-nan -nan 0
-nan -nan 0
-nan -nan 0
-nan -nan 0
-nan -nan 0
-nan -nan 0
-nan -nan 0
-nan -nan 0
-nan -nan 0
-nan -nan 0
-nan -nan 0
-nan -nan 0
-nan -nan 0
-nan -nan 0
-nan -nan 0
-nan -nan 0
-nan -nan 0
-nan -nan 0
-nan -nan 0
-nan -nan 0
-nan -nan 0
-nan -nan 0
-nan -nan 0
-nan -nan 0
-nan -nan 0
-nan -nan 0
-nan -nan 0
-nan -nan 0
-nan -nan 0
-nan -nan 0
-nan -nan 0
-nan -nan 0
-nan -nan 0
-nan -nan 0
-nan -nan 0
-nan -nan 0
-nan -nan 0
-nan -nan 0
-nan -nan 0
-nan -nan 0
-nan -nan 0
-nan -nan 0
-nan -nan 0
-nan -nan 0
-nan -nan 0
-nan -nan 0
-nan -nan 0
-nan -nan 0
-nan -nan 0
-nan -nan 0
-nan -nan 0
-nan -nan 0
-nan -nan 0
-nan -nan 0
-nan -nan 0
-nan -nan 0
-nan -nan 0
-nan -nan 0
-nan -nan 0
-nan -nan 0
-nan -nan 0
-nan -nan 0
-nan -nan 0
-nan -nan 0
-nan -nan 0
-nan -nan 0
-nan -nan 0
-nan -nan 0
-nan -nan 0
-nan -nan 0
-nan -nan 0
-nan -nan 0
-nan -nan 0
-nan -nan 0
-nan -nan 0
-nan -nan 0
-nan -nan 0
-nan -nan 0
-nan -nan 0
-nan -nan 0
-nan -nan 0
-nan -nan 0
-nan -nan 0
-nan -nan 0
-nan -nan 0
-nan -nan 0
-nan -nan 0
-nan -nan 0
-nan -nan 0
-nan -nan 0
-nan -nan 0
-nan -nan 0
-nan -nan 0
-nan -nan 0
-nan -nan 0
-nan -nan 0
-nan -nan 0
-nan -nan 0
-nan -nan 0
-nan -nan 0
-nan -nan 0
-nan -nan 0
-nan -nan 0
-nan -nan 0
-nan -nan 0
-nan -nan 0
-nan -nan 0
-nan -nan 0
-nan -nan 0
-nan -nan 0
-nan -nan 0
-nan -nan 0
-nan -nan 0
-nan -nan 0
-nan -nan 0
-nan -nan 0
-nan -nan 0
-nan -nan 0
-nan -nan 0
-nan -nan 0
-nan -nan 0
-nan -nan 0
-nan -nan 0
-nan -nan 0
-nan -nan 0
-nan -nan 0
-nan -nan 0
-nan -nan 0
-nan -nan 0
-nan -nan 0
-nan -nan 0
-nan -nan 0
-nan -nan 0
-nan -nan 0
-nan -nan 0
-nan -nan 0
-nan -nan 0
-nan -nan 0
-nan -nan 0
-nan -nan 0
-nan -nan 0
-nan -nan 0
-nan -nan 0
-nan -nan 0
-nan -nan 0
-nan -nan 0
-nan -nan 0
-nan -nan 0
-nan -nan 0
-nan -nan 0
-nan -nan 0
-nan -nan 0
-nan -nan 0
-nan -nan 0
-nan -nan 0
-nan -nan 0
-nan -nan 0
-nan -nan 0
-nan -nan 0
-nan -nan 0
-nan -nan 0
-nan -nan 0
-nan -nan 0
-nan -nan 0
-nan -nan 0
-nan -nan 0
-nan -nan 0
-nan -nan 0
-nan -nan 0
-nan -nan 0
-nan -nan 0
-nan -nan 0
-nan -nan 0
-nan -nan 0
-nan -nan 0
-nan -nan 0
-nan -nan 0
-nan -nan 0
-nan -nan 0
-nan -nan 0
-nan -nan 0
-nan -nan 0
-nan -nan 0
-nan -nan 0
-nan -nan 0
-nan -nan 0
-nan -nan 0
-nan -nan 0
-nan -nan 0
-nan -nan 0
-nan -nan 0
-nan -nan 0
-nan -nan 0
-nan -nan 0
-nan -nan 0
-nan -nan 0
-nan -nan 0
-nan -nan 0
-nan -nan 0
-nan -nan 0
-nan -nan 0
-nan -nan 0
-nan -nan 0
-nan -nan 0
-nan -nan 0
-nan -nan 0
-nan -nan 0
-nan -nan 0
-nan -nan 0
-nan -nan 0
-nan -nan 0
-nan -nan 0
-nan -nan 0
-nan -nan 0
-nan -nan 0
-nan -nan 0
-nan -nan 0
-nan -nan 0
-nan -nan 0
-nan -nan 0
-nan -nan 0
-nan -nan 0
-nan -nan 0
-nan -nan 0
-nan -nan 0
-nan -nan 0
-nan -nan 0
-nan -nan 0
-nan -nan 0
-nan -nan 0
-nan -nan 0
-nan -nan 0
-nan -nan 0
-nan -nan 0
-nan -nan 0
-nan -nan 0
-nan -nan 0
-nan -nan 0
-nan -nan 0
-nan -nan 0
-nan -nan 0
-nan -nan 0
-nan -nan 0
-nan -nan 0
-nan -nan 0
-nan -nan 0
-nan -nan 0
-nan -nan 0
-nan -nan 0
-nan -nan 0
-nan -nan 0
-nan -nan 0
-nan -nan 0
-nan -nan 0
-nan -nan 0
-nan -nan 0
-nan -nan 0
-nan -nan 0
-nan -nan 0
-nan -nan 0
-nan -nan 0
-nan -nan 0
-nan -nan 0
-nan -nan 0
-nan -nan 0
-nan -nan 0
-nan -nan 0
-nan -nan 0
-nan -nan 0
-nan -nan 0
-nan -nan 0
-nan -nan 0
-nan -nan 0
-nan -nan 0
-nan -nan 0
-nan -nan 0
-nan -nan 0
-nan -nan 0
-nan -nan 0
-nan -nan 0
-nan -nan 0
-nan -nan 0
-nan -nan 0
-nan -nan 0
-nan -nan 0
-nan -nan 0
-nan -nan 0
-nan -nan 0
-nan -nan 0
-nan -nan 0
-nan -nan 0
-nan -nan 0
-nan -nan 0
-nan -nan 0
-nan -nan 0
-nan -nan 0
-nan -nan 0
-nan -nan 0
-nan -nan 0
-nan -nan 0
-nan -nan 0
-nan -nan 0
-nan -nan 0
-nan -nan 0
-nan -nan 0
-nan -nan 0
-nan -nan 0
-nan -nan 0
-nan -nan 0
-nan -nan 0
-nan -nan 0
-nan -nan 0
-nan -nan 0
-nan -nan 0
-nan -nan 0
-nan -nan 0
-nan -nan 0
-nan -nan 0
-nan -nan 0
-nan -nan 0
-nan -nan 0
-nan -nan 0
-nan -nan 0
-nan -nan 0
-nan -nan 0
-nan -nan 0
-nan -nan 0
-nan -nan 0
-nan -nan 0
-nan -nan 0
-nan -nan 0
-nan -nan 0
-nan -nan 0
-nan -nan 0
-nan -nan 0
-nan -nan 0
-nan -nan 0
-nan -nan 0
-nan -nan 0
-nan -nan 0
-nan -nan 0
-nan -nan 0
-nan -nan 0
-nan -nan 0
-nan -nan 0
-nan -nan 0
-nan -nan 0
-nan -nan 0
-nan -nan 0
-nan -nan 0
-nan -nan 0
-nan -nan 0
-nan -nan 0
-nan -nan 0
-nan -nan 0
-nan -nan 0
-nan -nan 0
-nan -nan 0
-nan -nan 0
-nan -nan 0
-nan -nan 0
-nan -nan 0
-nan -nan 0
-nan -nan 0
-nan -nan 0
-nan -nan 0
-nan -nan 0
-nan -nan 0
-nan -nan 0
-nan -nan 0
-nan -nan 0
-nan -nan 0
-nan -nan 0
-nan -nan 0
-nan -nan 0
-nan -nan 0
-nan -nan 0
-nan -nan 0
-nan -nan 0
-nan -nan 0
-nan -nan 0
-nan -nan 0
-nan -nan 0
-nan -nan 0
-nan -nan 0
-nan -nan 0
-nan -nan 0
-nan -nan 0
-nan -nan 0
-nan -nan 0
-nan -nan 0
-nan -nan 0
-nan -nan 0
-nan -nan 0
-nan -nan 0
-nan -nan 0
-nan -nan 0
-nan -nan 0
-nan -nan 0
-nan -nan 0
-nan -nan 0
-nan -nan 0
-nan -nan 0
-nan -nan 0
-nan -nan 0
-nan -nan 0
-nan -nan 0
-nan -nan 0
-nan -nan 0
-nan -nan 0
-nan -nan 0
-nan -nan 0
-nan -nan 0
-nan -nan 0
-nan -nan 0
-nan -nan 0
-nan -nan 0
-nan -nan 0
-nan -nan 0
-nan -nan 0
-nan -nan 0
-nan -nan 0
-nan -nan 0
-nan -nan 0
-nan -nan 0
-nan -nan 0
-nan -nan 0
-nan -nan 0
-nan -nan 0
-nan -nan 0
-nan -nan 0
-nan -nan 0
-nan -nan 0
-nan -nan 0
-nan -nan 0
-nan -nan 0
-nan -nan 0
-nan -nan 0
-nan -nan 0
-nan -nan 0
-nan -nan 0
-nan -nan 0
-nan -nan 0
-nan -nan 0
-nan -nan 0
-nan -nan 0
-nan -nan 0
-nan -nan 0
-nan -nan 0
-nan -nan 0
-nan -nan 0
-nan -nan 0
-nan -nan 0
-nan -nan 0
-nan -nan 0
-nan -nan 0
-nan -nan 0
-nan -nan 0
-nan -nan 0
-nan -nan 0
-nan -nan 0
-nan -nan 0
-nan -nan 0
-nan -nan 0
-nan -nan 0
-nan -nan 0
-nan -nan 0
-nan -nan 0
-nan -nan 0
-nan -nan 0
-nan -nan 0
-nan -nan 0
-nan -nan 0
-nan -nan 0
-nan -nan 0
-nan -nan 0
-nan -nan 0
-nan -nan 0
-nan -nan 0
-nan -nan 0
-nan -nan 0
-nan -nan 0
-nan -nan 0
-nan -nan 0
-nan -nan 0
-nan -nan 0
-nan -nan 0
-nan -nan 0
-nan -nan 0
-nan -nan 0
-nan -nan 0
-nan -nan 0
-nan -nan 0
-nan -nan 0
-nan -nan 0
-nan -nan 0
-nan -nan 0
-nan -nan 0
-nan -nan 0
-nan -nan 0
-nan -nan 0
-nan -nan 0
-nan -nan 0
-nan -nan 0
-nan -nan 0
-nan -nan 0
-nan -nan 0
-nan -nan 0
-nan -nan 0
-nan -nan 0
-nan -nan 0
-nan -nan 0
-nan -nan 0
-nan -nan 0
-nan -nan 0
-nan -nan 0
-nan -nan 0
-nan -nan 0
-nan -nan 0
-nan -nan 0
-nan -nan 0
-nan -nan 0
-nan -nan 0
-nan -nan 0
-nan -nan 0
-nan -nan 0
-nan -nan 0
-nan -nan 0
-nan -nan 0
-nan -nan 0
-nan -nan 0
-nan -nan 0
-nan -nan 0
-nan -nan 0
-nan -nan 0
-nan -nan 0
-nan -nan 0
-nan -nan 0
-nan -nan 0
-nan -nan 0
-nan -nan 0
-nan -nan 0
-nan -nan 0
-nan -nan 0
-nan -nan 0
-nan -nan 0
-nan -nan 0
-nan -nan 0
-nan -nan 0
-nan -nan 0
-nan -nan 0
-nan -nan 0
-nan -nan 0
-nan -nan 0
-nan -nan 0
-nan -nan 0
-nan -nan 0
-nan -nan 0
-nan -nan 0
-nan -nan 0
-nan -nan 0
-nan -nan 0
-nan -nan 0
-nan -nan 0
-nan -nan 0
-nan -nan 0
-nan -nan 0
-nan -nan 0
-nan -nan 0
-nan -nan 0
-nan -nan 0
-nan -nan 0
-nan -nan 0
-nan -nan 0
-nan -nan 0
-nan -nan 0
-nan -nan 0
-nan -nan 0
-nan -nan 0
-nan -nan 0
-nan -nan 0
-nan -nan 0
-nan -nan 0
-nan -nan 0
-nan -nan 0
-nan -nan 0
-nan -nan 0
-nan -nan 0
-nan -nan 0
-nan -nan 0
-nan -nan 0
-nan -nan 0
-nan -nan 0
-nan -nan 0
-nan -nan 0
-nan -nan 0
-nan -nan 0
-nan -nan 0
-nan -nan 0
-nan -nan 0
-nan -nan 0
-nan -nan 0
-nan -nan 0
-nan -nan 0
-nan -nan 0
-nan -nan 0
-nan -nan 0
-nan -nan 0
-nan -nan 0
-nan -nan 0
-nan -nan 0
-nan -nan 0
-nan -nan 0
-nan -nan 0
-nan -nan 0
-nan -nan 0
-nan -nan 0
-nan -nan 0
-nan -nan 0
-nan -nan 0
-nan -nan 0
-nan -nan 0
-nan -nan 0
-nan -nan 0
-nan -nan 0
-nan -nan 0
-nan -nan 0
-nan -nan 0
-nan -nan 0
-nan -nan 0
-nan -nan 0
-nan -nan 0
-nan -nan 0
-nan -nan 0
-nan -nan 0
-nan -nan 0
-nan -nan 0
-nan -nan 0
-nan -nan 0
-nan -nan 0
-nan -nan 0
-nan -nan 0
-nan -nan 0
-nan -nan 0
-nan -nan 0
-nan -nan 0
-nan -nan 0
-nan -nan 0
-nan -nan 0
-nan -nan 0
-nan -nan 0
-nan -nan 0
-nan -nan 0
-nan -nan 0
-nan -nan 0
-nan -nan 0
-nan -nan 0
-nan -nan 0
-nan -nan 0
-nan -nan 0
-nan -nan 0
-nan -nan 0
-nan -nan 0
-nan -nan 0
-nan -nan 0
-nan -nan 0
-nan -nan 0
-nan -nan 0
-nan -nan 0
-nan -nan 0
-nan -nan 0
-nan -nan 0
-nan -nan 0
-nan -nan 0
-nan -nan 0
-nan -nan 0
-nan -nan 0
-nan -nan 0
-nan -nan 0
-nan -nan 0
-nan -nan 0
-nan -nan 0
-nan -nan 0
-nan -nan 0
-nan -nan 0
-nan -nan 0
-nan -nan 0
-nan -nan 0
-nan -nan 0
-nan -nan 0
-nan -nan 0
-nan -nan 0
-nan -nan 0
-nan -nan 0
-nan -nan 0
-nan -nan 0
-nan -nan 0
-nan -nan 0
-nan -nan 0
-nan -nan 0
-nan -nan 0
-nan -nan 0
-nan -nan 0
-nan -nan 0
-nan -nan 0
-nan -nan 0
-nan -nan 0
-nan -nan 0
-nan -nan 0
-nan -nan 0
-nan -nan 0
-nan -nan 0
-nan -nan 0
-nan -nan 0
-nan -nan 0
-nan -nan 0
-nan -nan 0
-nan -nan 0
-nan -nan 0
-nan -nan 0
-nan -nan 0
-nan -nan 0
-nan -nan 0
-nan -nan 0
-nan -nan 0
-nan -nan 0
-nan -nan 0
-nan -nan 0
-nan -nan 0
-nan -nan 0
-nan -nan 0
-nan -nan 0
-nan -nan 0
-nan -nan 0
-nan -nan 0
-nan -nan 0
-nan -nan 0
-nan -nan 0
-nan -nan 0
-nan -nan 0
-nan -nan 0
-nan -nan 0
-nan -nan 0
-nan -nan 0
-nan -nan 0
-nan -nan 0
-nan -nan 0
-nan -nan 0
-nan -nan 0
-nan -nan 0
-nan -nan 0
-nan -nan 0
-nan -nan 0
-nan -nan 0
-nan -nan 0
-nan -nan 0
-nan -nan 0
-nan -nan 0
-nan -nan 0
-nan -nan 0
-nan -nan 0
-nan -nan 0
-nan -nan 0
-nan -nan 0
-nan -nan 0
-nan -nan 0
-nan -nan 0
-nan -nan 0
-nan -nan 0
-nan -nan 0
-nan -nan 0
-nan -nan 0
-nan -nan 0
-nan -nan 0
-nan -nan 0
-nan -nan 0
-nan -nan 0
-nan -nan 0
-nan -nan 0
-nan -nan 0
-nan -nan 0
-nan -nan 0
-nan -nan 0
-nan -nan 0
-nan -nan 0
-nan -nan 0
-nan -nan 0
-nan -nan 0
-nan -nan 0
-nan -nan 0
-nan -nan 0
-nan -nan 0
-nan -nan 0
-nan -nan 0
-nan -nan 0
-nan -nan 0
-nan -nan 0
-nan -nan 0
-nan -nan 0
-nan -nan 0
-nan -nan 0
-nan -nan 0
-nan -nan 0
-nan -nan 0
-nan -nan 0
-nan -nan 0
-nan -nan 0
-nan -nan 0
-nan -nan 0
-nan -nan 0
-nan -nan 0
-nan -nan 0
-nan -nan 0
-nan -nan 0
-nan -nan 0
-nan -nan 0
-nan -nan 0
-nan -nan 0
-nan -nan 0
-nan -nan 0
-nan -nan 0
-nan -nan 0
-nan -nan 0
-nan -nan 0
-nan -nan 0
-nan -nan 0
-nan -nan 0
-nan -nan 0
-nan -nan 0
-nan -nan 0
-nan -nan 0
-nan -nan 0
-nan -nan 0
-nan -nan 0
-nan -nan 0
-nan -nan 0
-nan -nan 0
-nan -nan 0
-nan -nan 0
-nan -nan 0
-nan -nan 0
-nan -nan 0
-nan -nan 0
-nan -nan 0
-nan -nan 0
-nan -nan 0
-nan -nan 0
-nan -nan 0
-nan -nan 0
-nan -nan 0
-nan -nan 0
-nan -nan 0
-nan -nan 0
-nan -nan 0
      </DataArray> 
      <DataArray type="Float64" NumberOfComponents="3" Name="MeshDisp" format="ascii">
0 0 0
0 0 0
0 0 0
1 0 0
0.9999999999999999 0 0
0 0 0
0 0 0
0 0 0
0 0 0
0 0 0
0 0 0
0 0 0
0 0 0
0 0 0
0 0 0
0 0 0
0 0 0
0 0 0
0 0 0
0 0 0
0.08809792800484452 0 0
0.115898723262304 0 0
0.1394473838677611 0 0
0.1615973802530258 0 0
0.1828966562467846 0 0
0.203663256243914 0 0
0.224047012961551 0 0
0.2441665057651689 0 0
0.2640956416754024 0 0
0.2838839074044216 0 0
0.3035662429062872 0 0
0.3231677894077406 0 0
0.3427070624197869 0 0
0.3621982336926065 0 0
0.3816516543587569 0 0
0.4010752296679643 0 0
0.4204751935496253 0 0
0.4398563857723417 0 0
0.4592226013722465 0 0
0.4785768250757105 0 0
0.4979214270784533 0 0
0.5172582884014578 0 0
0.5365889134414865 0 0
0.5559145037766161 0 0
0.5752360255578817 0 0
0.5945542541682848 0 0
0.6138698154762005 0 0
0.6331832135680737 0 0
0.6524948564760051 0 0
0.6718050738560463 0 0
0.6911141331633593 0 0
0.7104222510409367 0 0
0.7297296035657441 0 0
0.7490363336601993 0 0
0.7683425573469268 0 0
0.7876483690518972 0 0
0.8069538482582083 0 0
0.8262590579845487 0 0
0.8455640478470909 0 0
0.8648688623503672 0 0
0.88417353611796 0 0
0.9034780978849456 0 0
0.9227825722995664 0 0
0.9420869833052999 0 0
0.9613913474259306 0 0
0.9806956815001291 0 0
1 0 0
1 0 0
1 0 0
1 0 0
1 0 0
1 0 0
1 0 0
1 0 0
1 0 0
1 0 0
0.9999999999999999 0 0
0.9999999999999999 0 0
1 0 0
1 0 0
0.9807781957723051 0 0
0.9615564059723213 0 0
0.9423346457548406 0 0
0.9231129320203993 0 0
0.9038912826530211 0 0
0.8846697180725718 0 0
0.8654482640525154 0 0
0.846226946189549 0 0
0.8270058046131767 0 0
0.8077848762412005 0 0
0.788564212915544 0 0
0.7693438799397552 0 0
0.7501239471757778 0 0
0.7309045138762069 0 0
0.7116856849633763 0 0
0.6924676099099145 0 0
0.6732504456037467 0 0
0.6540344241072322 0 0
0.6348197688495636 0 0
0.6156068354193742 0 0
0.5963959714123251 0 0
0.5771876989612935 0 0
0.5579826006304883 0 0
0.5387813916322541 0 0
0.5195849780242744 0 0
0.5003944760797256 0 0
0.4812112510932471 0 0
0.4620370071536794 0 0
0.4428738897136243 0 0
0.4237243734494692 0 0
0.4045915944984307 0 0
0.3854797937510721 0 0
0.3663933305634725 0 0
0.347338612102401 0 0
0.3283228586207882 0 0
0.3093550914586751 0 0
0.2904464349422578 0 0
0.2716102723722251 0 0
0.2528632207982118 0 0
0.2342248331395289 0 0
0.2157186889517626 0 0
0.1973730607833538 0 0
0.1792164592515093 0 0
0.1612780719429616 0 0
0.143587428799437 0 0
0.1261859194592856 0 0
0.1091266497226807 0 0
0.09252006147911089 0 0
0.07655613876464787 0 0
0.06153785047479345 0 0
0.04766830279473837 0 0
0.03525246000047288 0 0
0.02445178055794658 0 0
0.0161095370834816 0 0
0.009797421171588348 0 0
0.005460731609591129 0 0
0.002760361945347588 0 0
0.00106034977138323 0 0
0 0 0
0 0 0
0 0 0
0 0 0
0 0 0
0 0 0
0 0 0
0 0 0
0 0 0
0 0 0
0 0 0
0 0 0
0 0 0
0 0 0
0 0 0
0 0 0
0 0 0
0 0 0
0.05576754051024738 0 0
0.06843837357821719 0 0
0.1705211940466197 0 0
0.8376618103566954 0 0
0.7597336962677728 0 0
0.6828585377733362 0 0
0.6060003006572589 0 0
0.5301695896597591 0 0
0.4534176583448665 0 0
0.3759239497477254 0 0
0.299873475660171 0 0
0.0001252485837439754 0 0
0.2341673411791274 0 0
0.7978914155344593 0 0
0.7200754209143236 0 0
0.6428397970082279 0 0
0.5655778469952821 0 0
0.4882540027200442 0 0
0.4107840117717165 0 0
0.3329536815752148 0 0
0.03096029046683388 0 0
0.06529395430493193 0 0
0.9816738831861956 0 0
0.03794602385873465 0 0
0.0626291794056742 0 0
0.04022568764148474 0 0
0.05973614655341979 0 0
0.8758150213922564 0 0
0.04029227462325958 0 0
0.05663372388906043 0 0
0.07556576221782761 0 0
0.07088452105537717 0 0
0.08928684659574382 0 0
0.08376314962947359 0 0
0.1016405065440191 0 0
0.06706507056573781 0 0
0.01974420535849824 0 0
0.2249532835403115 0 0
0.09550247629406319 0 0
0.1131038538544639 0 0
0.8957078867429856 0 0
-0.0003555306520929451 0 0
0.1063704841165786 0 0
0.1238870610690954 0 0
0.000469654777887777 0 0
-0.0009293091880976307 0 0
0.1309417627611729 0 0
0.1415756585493378 0 0
0.1168417819049104 0 0
0.09965541962265109 0 0
0.9827360827670907 0 0
0.1491992397424494 0 0
0.1596666749968251 0 0
0.02260642959716938 0 0
0.02454258500045876 0 0
0.1676219230025749 0 0
0.1780354464342517 0 0
0.1097526632553578 0 0
0.09299587950496345 0 0
0.1695609937423452 0 0
0.1882214672305282 0 0
0.1965888692350644 0 0
0.2067276829529998 0 0
0.2153256471538221 0 0
0.225389715857842 0 0
0.2341225514541072 0 0
0.2441709463793554 0 0
0.2528358262882138 0 0
0.2630760525883836 0 0
0.2721989138289729 0 0
0.2821207690460274 0 0
0.2912997822214121 0 0
0.3011858961561024 0 0
0.3104401617397395 0 0
0.3202915361625276 0 0
0.329604957358078 0 0
0.3394264808628742 0 0
0.3486089979939086 0 0
0.35856800122256 0 0
0.3678797153565259 0 0
0.3777674873372812 0 0
0.3872030996568249 0 0
0.3969845047379801 0 0
0.406453014801739 0 0
0.4162078522473657 0 0
0.4256940391062057 0 0
0.4354370162468285 0 0
0.4449393359456073 0 0
0.4546726598863221 0 0
0.4641884980463601 0 0
0.4739144438841304 0 0
0.4834411805219337 0 0
0.4931624822119145 0 0
0.5026967421101399 0 0
0.5124132098894183 0 0
0.521954361164812 0 0
0.5316662663874336 0 0
0.5412134506007279 0 0
0.550922042886003 0 0
0.5604738942952159 0 0