<?xml version="1.0"?>
<VTKFile type="UnstructuredGrid">
  <UnstructuredGrid>
  <Piece NumberOfPoints="1224"  NumberOfCells="2290">
    <Points>
      <DataArray type="Float64" NumberOfComponents="3" format="ascii">
0 0 0
0.6 0 0
0.6 0.2 0
3 0.2 0
3 1 0
0 1 0
0.05454545454535233 0 0
0.1090909090906768 0 0
0.1636363636359771 0 0
0.2181818181812728 0 0
0.2727272727265793 0 0
0.3272727272720317 0 0
0.3818181818176247 0 0
0.4363636363632168 0 0
0.4909090909088285 0 0
0.5454545454544089 0 0
0.6 0.03999999999991203 0
0.6 0.07999999999979179 0
0.6 0.1199999999997886 0
0.6 0.1599999999998948 0
0.6510638297871261 0.2 0
0.7021276595742618 0.2 0
0.7531914893613819 0.2 0
0.8042553191485237 0.2 0
0.8553191489356438 0.2 0
0.9063829787228289 0.2 0
0.957446808509926 0.2 0
1.008510638297009 0.2 0
1.059574468084092 0.2 0
1.110638297871174 0.2 0
1.161702127658257 0.2 0
1.21276595744534 0.2 0
1.263829787232422 0.2 0
1.314893617019505 0.2 0
1.365957446806588 0.2 0
1.417021276593671 0.2 0
1.468085106380754 0.2 0
1.519148936167923 0.2 0
1.570212765955006 0.2 0
1.621276595742088 0.2 0
1.672340425529171 0.2 0
1.723404255316254 0.2 0
1.774468085103337 0.2 0
1.825531914890624 0.2 0
1.876595744677951 0.2 0
1.927659574465349 0.2 0
1.978723404252714 0.2 0
2.029787234040074 0.2 0
2.080851063827477 0.2 0
2.131914893614798 0.2 0
2.182978723402204 0.2 0
2.234042553189523 0.2 0
2.285106382976928 0.2 0
2.336170212764247 0.2 0
2.387234042551653 0.2 0
2.438297872338975 0.2 0
2.489361702126377 0.2 0
2.540425531913739 0.2 0
2.591489361701102 0.2 0
2.642553191488421 0.2 0
2.693617021275827 0.2 0
2.744680851063146 0.2 0
2.795744680850551 0.2 0
2.84680851063787 0.2 0
2.897872340425276 0.2 0
2.948936170212618 0.2 0
3 0.2533333333332341 0
3 0.3066666666664725 0
3 0.3599999999996274 0
3 0.413333333332804 0
3 0.4666666666659806 0
3 0.5199999999991571 0
3 0.5733333333323336 0
3 0.6266666666656895 0
3 0.6799999999991551 0
3 0.7333333333326146 0
3 0.7866666666660802 0
3 0.8399999999995775 0
3 0.8933333333330373 0
3 0.9466666666664969 0
2.949152542373491 1 0
2.898305084746983 1 0
2.847457627120474 1 0
2.796610169493702 1 0
2.745762711866469 1 0
2.694915254239208 1 0
2.644067796611963 1 0
2.593220338985156 1 0
2.542372881358647 1 0
2.491525423732018 1 0
2.44067796610481 1 0
2.389830508477549 1 0
2.338983050850287 1 0
2.288135593223026 1 0
2.237288135595765 1 0
2.186440677968504 1 0
2.135593220341243 1 0
2.084745762713982 1 0
2.033898305086721 1 0
1.983050847459614 1 0
1.932203389832729 1 0
1.881355932205844 1 0
1.830508474578958 1 0
1.779661016952073 1 0
1.728813559325189 1 0
1.677966101698303 1 0
1.627118644071418 1 0
1.576271186444533 1 0
1.525423728817648 1 0
1.474576271190575 1 0
1.423728813563314 1 0
1.372881355936053 1 0
1.322033898308791 1 0
1.27118644068153 1 0
1.220338983054269 1 0
1.169491525427008 1 0
1.118644067799747 1 0
1.067796610172485 1 0
1.016949152545224 1 0
0.9661016949179628 1 0
0.9152542372907018 1 0
0.8644067796634407 1 0
0.8135593220361792 1 0
0.7627118644089181 1 0
0.7118644067816566 1 0
0.661016949154396 1 0
0.6101694915271345 1 0
0.5593220338998739 1 0
0.5084745762726124 1 0
0.4576271186453518 1 0
0.4067796610180903 1 0
0.3559322033908292 1 0
0.3050847457635677 1 0
0.2542372881363066 1 0
0.2033898305090456 1 0
0.1525423728817841 1 0
0.101694915254523 1 0
0.05084745762726151 1 0
0 0.9473684210524125 0
0 0.8947368421048248 0
0 0.8421052631576025 0
0 0.7894736842105994 0
0 0.7368421052635962 0
0 0.6842105263165927 0
0 0.6315789473695894 0
0 0.5789473684225861 0
0 0.5263157894755828 0
0 0.4736842105282874 0
0 0.4210526315806998 0
0 0.3684210526331123 0
0 0.3157894736855248 0
0 0.2631578947379374 0
0 0.21052631579035 0
0 0.1578947368427625 0
0 0.1052631578951749 0
0 0.05263157894758741 0
0.4374856279758046 0.955462795473483 0
0.625531914893563 0.2394317949808221 0
0.7891616249544176 0.9557759867023439 0
2.570562443351098 0.9559758769411787 0
2.364406779663917 0.9559648099769389 0
2.161016949154874 0.9559648099769389 0
1.957627118646171 0.9559648099772646 0
1.756856606547665 0.9560078743553572 0
1.553415402058453 0.9561420672712786 0
1.347457627122422 0.95627738856474 0
1.144067796613377 0.9563034567995272 0
0.04146670856173688 0.5498854761242812 0
0.9828861012149002 0.2442383967812095 0
2.465390809289578 0.2421522008426663 0
2.259572257543314 0.243586373321511 0
2.055319178697841 0.24363095694403 0
1.851066099915384 0.2436741865527954 0
1.646810778591931 0.2437170671454607 0
1.442550972205278 0.2437587738062726 0
1.238275543433999 0.2442249255777628 0
0.5808319854219957 0.2417757800606361 0
0.6039807146029165 0.2785115072887754 0
2.951522810440164 0.5995349944823752 0
0.5591131416216563 0.2791940688436214 0
0.5817690965011905 0.3180386921514113 0
0.5363223429032008 0.3181181454258206 0
0.5590799034518541 0.3577335228902347 0
2.671507320584846 0.2416532643303031 0
0.5129751095268966 0.3576683284772433 0
0.5360042291720796 0.3976917483469583 0
0.5824744072527975 0.3977458985417416 0
0.5593202208963615 0.4382323507424581 0
0.6062221806132498 0.4382172989803606 0
0.5831398502988122 0.4790536480492864 0
0.630245509211025 0.4792447281197085 0
0.5373735766893435 0.4817209888486334 0
0.2780994584865757 0.9660670791366374 0
0.9407829849899363 0.9559852449915113 0
0.6069171020766708 0.5203953730037822 0
0.6544691944766102 0.5205851219036783 0
2.724115018794794 0.9563165682871465 0
0.04341732373162228 0.2894490564426765 0
0.6304562046384772 0.5622881188475496 0
0.6786259291441818 0.5621981517123112 0
0.03938236249337418 0.7091098825652095 0
0.2999999999993055 0.04723774929726795 0
0.7024556039582556 0.5200372393771872 0
0.726826368578132 0.562505099575485 0
0.6545296629344706 0.6041261864689124 0
0.6061411599039735 0.6041581669226386 0
2.954333097254252 0.4393531299125908 0
0.7512905139641642 0.5199435586712576 0
0.7757938242112172 0.5624873891767795 0
0.4902278874550028 0.3174350849704655 0
0.4661669324669476 0.3576870257641042 0
0.8003371868304782 0.5195844107098163 0
0.8251782158071723 0.5621174250913318 0
0.6300572939290072 0.6460588488486728 0
0.581677101888915 0.6462390077748084 0
0.7994632498085218 0.6067218912904607 0
0.850068894442807 0.6047738158182728 0
0.8747482025846163 0.5617915498272615 0
0.8998102571129438 0.6045430073239006 0
0.924588798996443 0.5614360364847856 0
0.9497125983499418 0.6046345614192383 0
0.9744389394813738 0.5613114208485291 0
0.9997656958801404 0.604758732930365 0
1.024028015453996 0.5597386087889248 0
1.050046148741532 0.6042836632406788 0
1.075213347289947 0.5607219500906248 0
1.100604808237692 0.6043040651294929 0
1.125727120818654 0.5598592244124957 0
1.151165990249003 0.6040638744783449 0
1.176319565514503 0.5595216793632644 0
1.201793840633129 0.6038781229769293 0
1.226960854257978 0.5600604284234054 0
1.252470704079807 0.6038664424080111 0
1.277198987313166 0.55874807111347 0
1.303148970446812 0.6035341865995129 0
1.328130525802366 0.5586520846649797 0
1.353966012915828 0.6034054551655909 0
1.379205474149696 0.558835304845746 0
1.404820923589671 0.6032503772964327 0
1.430092956912838 0.5587079795953892 0
1.455686300628245 0.6030926920218221 0
1.480963489515269 0.5580480170404921 0
1.506562983627252 0.6028436706904448 0
1.531847734917255 0.5577680566445021 0
1.557453558526421 0.6026435181305781 0
1.582745756648754 0.5575726351194972 0
1.608358176126191 0.6024617369905624 0
1.633656322435163 0.5573842056888257 0
1.659277805706528 0.6022873884346892 0
1.684577462424181 0.5572075399874397 0
1.710203504633815 0.6021111834258887 0
1.735506494091908 0.5570246051384745 0
1.761134606493805 0.6019307913070558 0
1.786441498808711 0.5568475628142857 0
1.812072359676459 0.6017522495250318 0
1.837381834584306 0.5566653603575672 0
1.863017119880456 0.601574020443024 0
1.888326681794851 0.5564884669211013 0
1.913963858781491 0.601395113412113 0
1.939274704592935 0.5563067813822595 0
1.964908406083961 0.6012129143420911 0
1.990224566339525 0.5561292537946573 0
2.015859329864652 0.601032757987411 0
2.041177190815608 0.5559477304122714 0
2.066818109147928 0.600855564813206 0
2.09213259478423 0.5557710179709322 0
2.117774443326183 0.6006760179252703 0
2.143088896138059 0.5555900146741853 0
2.168729305797513 0.6004921726308964 0
2.194045774061603 0.5554125217101814 0
2.219686577151481 0.6003111949874665 0
2.245003702950199 0.5552312296013228 0
2.270641766736839 0.6001298880828497 0
2.295962173634055 0.5550546947866846 0
2.321601310982481 0.599950595338254 0
2.346923922781879 0.5548708301001631 0
2.372568004594504 0.5997713467128002 0
2.397895756972162 0.5547000681173012 0
2.423546697517365 0.5996004731097838 0
2.448884659670238 0.5545095609010697 0
2.474538141419978 0.5994220729206983 0
2.499902931415869 0.5543494429014709 0
2.525546234724433 0.5993228147833797 0
2.550973655834774 0.5541346321759457 0
2.576685338327378 0.5992395038842441 0
2.602182482443039 0.5540180644105763 0
2.958944511946492 0.7598964409357507 0
2.628014314012249 0.5990918128353608 0
0.4429170888396284 0.3159793431387367 0
0.4184631156771032 0.357715436029677 0
0.3946070818022522 0.3157219358498637 0
0.3697276561976696 0.3576135465858128 0
2.449044355814981 0.643990885448769 0
2.24531935830005 0.6444881680698032 0
1.024857369602972 0.6487487015028032 0
2.041498164113345 0.6452136474256573 0
1.837701628146142 0.6459229900926835 0
0.3455853078837237 0.3150377509381005 0
0.3204780172155196 0.3574251905568473 0
0.3449438693484468 0.4002519798591844 0
1.633970683060678 0.6466170330762969 0
1.227333380683899 0.6479317947648683 0
1.430444030483603 0.6473399689389928 0
0.875196942148915 0.6483605753517908 0
0.6057010339261732 0.6883083412871458 0
0.5571396249147901 0.6885103796531055 0
2.653543252321963 0.5527758280498023 0
1.099471497978971 0.5148848291986879 0
2.602427017093663 0.6438096025956825 0
2.653851606946175 0.6437140715169269 0
1.353138019780104 0.5138574114565649 0
1.556762689169365 0.5115839513085039 0
1.760509743411542 0.5109012431757174 0
1.964341412665395 0.510388685431229 0
0.2953909602266698 0.4001745965167012 0
[...]
    <PointData>
      <DataArray type="Float64" NumberOfComponents="3" Name="Velocity" format="ascii">
3.000000237346707 0 0
0 0 0
0 0 0
3.241022471626919 0 0
3.240755893475022 0 0
3.000000000241815 0 0
2.999999784940372 0 0
2.999999071671427 0 0
3.000013771533216 0 0
3.00014590531413 0 0
2.998856492527341 0 0
2.964537183620267 0 0
2.676758842985791 0 0
1.806935619970524 0 0
0.7553337741853569 0 0
0.1826088650055416 0 0
0 0.1297070780542545 0
0 0.2409270834094651 0
0 0.3765380888258639 0
0 0.5411108281219699 0
1.374790457676951 0 0
1.910756557547134 0 0
2.203346986982038 0 0
2.423819161685052 0 0
2.581345173799809 0 0
2.714964274415581 0 0
2.809831052627354 0 0
2.877886530248164 0 0
2.924623335215148 0 0
2.95506143638344 0 0
2.973525337412064 0 0
2.985773800998025 0 0
2.992835687326648 0 0
2.996299988664722 0 0
2.998245618860174 0 0
2.999222019240577 0 0
2.999682361243068 0 0
2.999892656586702 0 0
2.999970306770944 0 0
2.999995557677912 0 0
3.000000613556913 0 0
3.000000645704796 0 0
3.000000152224054 0 0
2.999999979922337 0 0
2.999999981549756 0 0
3.000000000509474 0 0
3.000000000859783 0 0
2.9999999997117 0 0
3.000000000059808 0 0
3.000000000022531 0 0
3.000000000019715 0 0
2.999999999851572 0 0
3.000000000100071 0 0
3.000000000245538 0 0
2.999999999484841 0 0
3.00000000044024 0 0
2.999999999773455 0 0
3.000000008518863 0 0
2.999999941815217 0 0
2.999999541081871 0 0
2.999999869212072 0 0
3.000018218265832 0 0
3.000208594831743 0 0
3.001439631032579 0 0
3.009036635538711 0 0
3.058086967629614 0 0
3.241945380238315 0.001758516290523122 0
3.2318181821083 0.001210367987029855 0
3.233320513018532 0.001003268708429014 0
3.233655394393604 0.0001013162617908838 0
3.236563612253117 -0.0004676156107462305 0
3.23844870359297 -0.0007010575820328731 0
3.23590416088443 -0.0003779353748083212 0
3.234871372672082 -0.0005025385870507089 0
3.238531385118587 -6.942465344746246e-05 0
3.236583748339307 -3.951273334687944e-05 0
3.237364182920307 -0.0003215421033270482 0
3.233747635896717 -0.0007833305312243249 0
3.230945284500655 -0.001842894263149553 0
3.241803036502123 -0.001354595041718174 0
3.053318371521776 0 0
3.009584425674083 0 0
3.001497577938082 0 0
3.000206424969677 0 0
3.000021701954494 0 0
3.000000783264349 0 0
2.999999667029476 0 0
2.999999932201665 0 0
3.000000003130472 0 0
3.000000000461257 0 0
3.000000000197789 0 0
2.999999999533797 0 0
3.000000000273456 0 0
3.000000000058629 0 0
2.999999999879955 0 0
3.000000000016584 0 0
3.00000000002316 0 0
2.999999999998537 0 0
2.999999999988957 0 0
3.000000000009344 0 0
2.999999999987748 0 0
3.000000000014415 0 0
2.999999999999268 0 0
2.999999999986274 0 0
2.99999999995201 0 0
3.00000000018644 0 0
3.000000000015254 0 0
2.999999998955613 0 0
2.999999999997476 0 0
3.000000005580763 0 0
3.000000008616422 0 0
3.000000002050222 0 0
2.999999978377862 0 0
2.999999929107284 0 0
2.999999863549589 0 0
2.999999785486479 0 0
2.999999720762523 0 0
2.999999647857293 0 0
2.999999459217434 0 0
2.999999427831434 0 0
2.999999709732767 0 0
2.999999960386049 0 0
3.000000068108454 0 0
3.000000082184728 0 0
3.000000058252492 0 0
3.000000029918021 0 0
3.000000010247104 0 0
2.999999999615823 0 0
2.999999998181349 0 0
3.000000000169256 0 0
3.000000000259147 0 0
2.999999999802727 0 0
3.000000000125692 0 0
2.999999999956406 0 0
3.000000000048323 0 0
3.000000000137208 0 0
3.000000000216317 0 0
3.000000000196025 0 0
2.999999999804147 0 0
3.000000000146133 0 0
2.999999999053673 0 0
3.000000000276418 0 0
2.999999999843538 0 0
3.000000000869909 0 0
3.000000001523945 0 0
3.000000001294914 0 0
2.999999997676381 0 0
2.99999999571371 0 0
2.999999999383088 0 0
3.000000007094294 0 0
3.000000019562807 0 0
3.000000030882688 0 0
3.00000002361429 0 0
3.000000047360909 0 0
3.000000088405236 0 0
3.000000097774696 0 0
2.999999998921348 1.950943349394712e-09 0
1.296578108678857 0.5939839903608526 0
2.999999870823618 4.282894144886082e-07 0
2.999999978335901 2.99435515716516e-09 0
2.99999999995143 -3.041093155867517e-11 0
2.999999999962536 -1.378314610793469e-12 0
2.999999999999905 4.920800428020298e-13 0
3.000000000019768 8.728998049324597e-11 0
3.000000002015212 3.862971341051108e-09 0
2.999999938073459 -7.244031825961968e-08 0
2.999999595420016 1.796785242088733e-06 0
3.000000000035012 6.465326297027591e-10 0
2.858774253756839 0.05046546279304032 0
2.999999998745699 -1.167324202781807e-11 0
3.000000000088823 -3.789427592169793e-11 0
2.999999999998113 -2.521703728190687e-12 0
2.999999972814372 5.636984557346212e-10 0
2.99999972573901 -1.592996955378309e-06 0
2.999594593796535 -8.93027536881817e-05 0
2.991341489955187 0.002378465535653764 0
1.137192131748296 0.8203491770564901 0
1.674537850727212 0.8101710923198153 0
3.071709407312947 -0.0003559173704091142 0
1.66678318443031 0.7846147640534822 0
2.050540434353063 0.7187480183932413 0
2.230224625329448 0.5249107149580828 0
2.475450242913427 0.4423656178475284 0
2.999999620841969 2.539646094815161e-07 0
2.675540009283167 0.2415199363653703 0
2.791811736374379 0.1853110810796874 0
2.669801702414568 0.3334327715845812 0
2.877989261523028 0.1267698056338482 0
2.806335999577827 0.228023120331919 0
2.933056434593913 0.07941960551676554 0
2.893912576144717 0.1425401018792037 0
2.968784697556451 0.03369717256531198 0
3.000000000131382 -1.465839256503732e-10 0
2.999998218599912 5.661788607699381e-06 0
2.965675497101256 0.04580567370719457 0
2.945474682835961 0.08227508563316838 0
3.000009032851456 -1.346507729647284e-06 0
2.999999999614595 2.29921691503756e-09 0
2.983514849499122 0.02445626435253458 0
2.973588865822993 0.04426117229505607 0
3.000000000012722 1.702468025676893e-10 0
2.992562640611601 0.0005579380706646257 0
2.927845040364641 0.1294737254376012 0
2.965133409710837 0.07001664044186932 0
2.992306911589314 0.01260326663662251 0
2.995978295561971 0.005969747114506388 0
3.083033050549542 -0.0002773658766904229 0
2.928425500071228 0.1557063476797529 0
2.964654150367865 0.08845869139872242 0
2.545389226249212 0.2746264989966172 0
2.860900457880486 0.09323823076587648 0
2.94066572530458 0.1595089808223656 0
2.971185684802644 0.09264782572021045 0
2.998143820905051 0.003023837266997593 0
2.999185361452545 0.001221852062613075 0
2.983930561686261 0.04560973988346412 0
2.987070611720986 0.04980263157290648 0
2.980439948848892 0.08854129431199113 0
2.991954459616649 0.04742527742595705 0
2.990042601697425 0.07848028261245341 0
2.996836358217886 0.04136812370999857 0
2.998211929968729 0.06469481078930669 0
3.000726851590318 0.03330714018825186 0
3.003928491548913 0.04994066763610737 0
3.00311823278043 0.02504487492143929 0
3.006655601561368 0.03468010214720627 0
3.003974992546663 0.01712482877314814 0
3.007034755061317 0.02284427176684443 0
3.003732860858081 0.01086123017979263 0
3.005954846067001 0.01373603164197625 0
3.00293115518496 0.006376283461949887 0
3.004286467568457 0.007498031504128477 0
3.001992028059267 0.003413655038794479 0
3.002756642369104 0.003784685479760086 0
3.001191654655868 0.001656343403875608 0
3.001520370058706 0.001669631518028119 0
3.000621234347995 0.0007154120840683539 0
3.000725636836956 0.0006414734342471341 0
3.000279397088726 0.0002723036369145796 0
3.000300179541581 0.0002133113681207017 0
3.000102913970976 8.648395355687317e-05 0
3.000103110056676 5.916522797527698e-05 0
3.00002945715588 2.253105581964048e-05 0
3.000027222886705 1.313775453610961e-05 0
3.000005386579637 4.528888147765333e-06 0
3.00000445934878 2.264753825797248e-06 0
2.999999929299352 6.236400181014215e-07 0
2.999999865518467 3.628433990949495e-07 0
2.999999514046102 4.065465595912783e-08 0
2.999999622962668 9.171082755099401e-08 0
2.999999836187051 -1.553423877690713e-08 0
2.999999874186366 1.71079761855453e-08 0
2.999999986255487 -1.118484605607477e-08 0
2.999999992058572 -6.611229697748807e-09 0
3.000000009083159 -3.927191727967719e-09 0
3.000000006332636 -4.449397151854534e-09 0
2.999999999774553 1.132998215153712e-09 0
2.999999999552279 1.091760008003804e-09 0
2.999999999645916 -2.203999372743232e-11 0
2.999999999901031 1.174483962757501e-12 0
3.000000000125151 -8.488205282355287e-11 0
3.000000000003412 -7.644846097171768e-11 0
2.999999999976092 3.699986768807167e-11 0
3.000000000016286 2.867967881982704e-11 0
3.000000000006724 -8.719521934246695e-12 0
2.999999999986157 -5.74997185903066e-12 0
3.000000000006714 2.119428261758954e-12 0
2.999999999999551 -3.01650492402023e-12 0
2.9999999999811 7.969997655342403e-13 0
3.000000000041748 1.95208894356892e-12 0
2.999999999967057 -3.288832958979972e-12 0
2.999999999974894 3.274681767620412e-12 0
3.000000000107202 5.955097865707867e-13 0
2.999999999865783 -2.541549086892871e-12 0
3.000000000041417 6.757362158828635e-12 0
3.000000000159192 -1.795376556100971e-12 0
2.999999999646664 -7.270484724213364e-12 0
3.000000000263219 4.267742190468227e-12 0
3.000000000299026 1.998927693868402e-12 0
2.999999999117471 -2.902764379472645e-12 0
3.000000000259627 -2.363878425335316e-11 0
3.000000002923267 -1.009466325994868e-11 0
3.000000000510644 8.561920471048753e-11 0
2.999999984105211 1.580133623410983e-10 0
2.999999932411698 1.431366302710183e-09 0
2.999999852659959 3.542081681314049e-09 0
3.09227023649034 -0.0001107429240939597 0
2.999999835934856 2.815487241224462e-09 0
2.817278294197997 0.09949522891433604 0
2.958493442245418 0.02580768677583654 0
2.952174214158611 0.02384866878094629 0
2.991341166037149 0.005066178405776432 0
2.999999999134379 1.137939169463571e-11 0
2.999999999967662 7.670125576920923e-13 0
3.000917774727064 0.01541644836125438 0
3.000000000015731 -1.581955622038662e-11 0
3.000000000695974 1.277750067980892e-09 0
2.993131278394099 0.003136096184248437 0
2.999253649016678 0.0004233908813900837 0
2.998749922390568 0.0008653112782373079 0
2.999999458277735 -2.862766398548775e-09 0
3.001161401635733 0.002550331600913583 0
3.00007550153741 8.909920025392021e-05 0
2.994721886812164 0.0245193680431047 0
2.999620734160013 0.0006185838739003994 0
2.999864679300265 0.0002068442687598204 0
3.000000108622336 8.763976194767546e-09 0
3.010053118680245 0.04203700994282508 0
2.999999858723033 1.870359244771464e-09 0
3.000000095173444 -1.894146613972762e-08 0
3.001550311834021 0.001302340145300097 0
3.000021571473939 4.503618561625717e-06 0
2.999999922821596 3.476930188378917e-08 0
2.99999999997987 -2.286324719526247e-11 0
2.999977073567998 2.314512191646612e-05 0
2.999861841422665 0.0001150474474538909 0
2.999999999983289 4.741253397225979e-12 0
2.99999999965741 2.473463933590506e-12 0
2.999999930401398 7.575448656026325e-10 0
2.885882611695362 0.253882405941165 0
2.989555477603066 0.1137302799384686 0
2.999999823388042 -1.3576246352283e-09 0
3.000001467155232 -8.985310944512189e-08 0
2.99993795167964 0.0001024969475709012 0
2.999862229146419 0.0002489334166629451 0
2.999982747118298 2.782591879963769e-05 0
2.999963379878603 5.562097257321334e-05 0
2.999996768876572 5.562321660475532e-06 0
2.999993232458098 1.114014960217058e-05 0
2.999999888109334 4.932903831426674e-07 0
2.999999570514511 1.248762024300084e-06 0
3.000000175519744 -1.559758381083796e-07 0
3.000000250815396 -1.488012871825755e-07 0
3.000000061211472 -7.876899709879778e-08 0
3.000000112415785 -1.26349435951464e-07 0
0.1570443540633968 0.4396873253966264 0
2.794661309390258 0.08780640509159983 0
3.000000003917533 -1.022045953253277e-08 0
2.999863391352553 6.67707881814014e-05 0
3.000779331069253 0.0001084207150564315 0
3.000007166376396 -3.109151291272282e-06 0
2.544687571882036 0.155960593771972 0
3.000000011280318 -2.114066044337505e-08 0
3.00000003936584 -1.201778349709222e-08 0
2.999999864934276 2.564133028165665e-09 0
3.000006572385578 -2.162524090213553e-07 0
3.000024501812152 -1.023217535338437e-06 0
2.116379766180089 0.2581015524523551 0
2.99999310228218 1.18761615408201e-05 0
3.000060882795237 -4.072759164610765e-06 0
2.999999999587738 -1.001371649055422e-09 0
2.999999986092955 3.790760339711005e-09 0
2.997342049149412 0.0007465964164774543 0
3.000070154580934 3.549159816774954e-06 0
3.000000000105455 7.871431459324833e-11 0
3.000000036017359 -4.663189384366965e-08 0
3.000000000003928 -2.929119915870709e-12 0
3.000000000207884 -8.195521161105887e-11 0
2.999999976672198 -1.973800337658059e-08 0
3.00000464916756 6.16528844792709e-06 0
2.999999999945911 1.47414726434515e-12 0
3.000000001625412 5.51934821539031e-11 0
3.000000000011136 1.168282078006304e-11 0
2.999952292625821 -2.329955659099776e-05 0
3.000000365364473 4.058632956453256e-08 0
2.946538903355012 0.01911193065182798 0
2.997881979614955 0.0001243173011907649 0
3.000400736976196 0.000606568814167679 0
3.000000000008167 7.935973216103155e-14 0
3.000000002024338 -3.030158669887635e-08 0
2.999999998854193 -2.115655144445417e-11 0
2.99999907168145 6.131101351270704e-06 0
2.999999792445996 2.674250297713721e-07 0
3.000000000081475 2.283254047560583e-11 0
2.999999999676198 -5.346799427250471e-10 0
3.000000000003702 -4.782631203079276e-12 0
2.999999999958286 -8.023236734476299e-11 0
3.001909235404907 0.007476692363183356 0
3.00000000001562 8.337375436006759e-12 0
3.00000000277439 -4.254372854380387e-09 0
2.999999914838663 2.274021571666875e-07 0
3.000275480458091 0.000125965638437503 0
3.0000000001856 3.20562952515704e-12 0
3.000000000104706 -1.142103328708654e-12 0
3.00742017127286 0.01427901576883689 0
2.999999986387972 -4.808371574360862e-09 0
2.99999878651198 2.805034943449707e-06 0
3.000762045611689 -6.132128043488212e-05 0
2.349296074377698 0.02600331078697328 0
3.000000000407231 -3.818697927315137e-12 0
3.000012856991624 -5.205782934793879e-06 0
3.000000025862241 -3.93673831808705e-08 0
2.587805744925635 0.4719493178153473 0
3.000002069739899 -1.08067147692729e-06 0
2.999999996219728 4.032700298571826e-09 0
3.000000186249132 -1.873170949940132e-07 0
3.00000002164616 -3.193829682570672e-08 0
3.000072598692423 -1.790198214850162e-06 0
2.999999826173025 1.891967496457566e-10 0
2.999999944825092 1.722308967391719e-09 0
2.999999980860741 1.834201566242841e-07 0
3.000000020053573 -4.372590327012995e-08 0
2.999928050714762 0.0001037525579447132 0
3.000214743098424 -8.231040130998593e-06 0
2.999999998076479 2.619025039603895e-09 0
2.998931544822235 0.0008962002715883444 0
2.999564696394024 0.0002175952357210053 0
3.000100782231811 -1.047172885240129e-05 0
3.000031758920359 -8.043973447008318e-06 0
3.00002297344301 -4.080369008104747e-07 0
3.000203266611687 -1.638928315773866e-06 0
3.082923222138717 0.00141896496795847 0
3.067014645933911 -0.00126080401790774 0
2.999874748034538 0.0001249653679800993 0
3.000000000717745 -9.9480336296077e-10 0
2.914633766697125 0.2372600885011779 0
2.842164816086123 0.3405222543661278 0
2.889070222386163 0.2935158954783237 0
3.000081830607436 -3.045261998366208e-06 0
2.996849736013106 0.005686984730974358 0
1.287630265901511 0.7587358507873319 0
2.999280196282244 0.0007163446885472826 0
3.00000159109196 -7.671337259271162e-07 0
3.000000123684376 -8.073450243666896e-08 0
3.000000302136142 -1.613495399453578e-07 0
3.00001725646478 -4.937090792355756e-06 0
3.000000000159298 -8.181321371568879e-10 0
2.809421086577744 0.365756867001907 0
2.866498229815909 0.2961380243724933 0
2.730607029689629 0.4408755075778939 0
3.000648028763985 -2.411697470640172e-05 0
3.000244994381491 -3.174920877836236e-06 0
2.999999999879665 1.37913515387173e-10 0
3.000000000861441 -3.875634832526932e-10 0
2.99999987071947 2.191816634000358e-09 0
2.999999988939936 1.048440536199963e-09 0
3.000000001771881 1.217106949211918e-11 0
3.000000002596874 -1.494347814828118e-10 0
2.999999999808037 4.16728161516845e-13 0
2.999999999257247 4.07397394743167e-11 0
3.000000000451561 -1.551600566521308e-11 0
3.000000000087742 -1.779467837635223e-12 0
2.99999999966171 -5.263267320423446e-12 0
3.000000000221298 2.229306621727215e-11 0
2.999999999988145 -3.485662584442518e-12 0
2.999999999891144 -1.44801734771821e-11 0
3.000000000126184 1.189398176794101e-11 0
2.999999999971119 -2.350022995472231e-11 0
2.999999999960218 1.147326665039808e-11 0
3.000000000027079 2.125766509673683e-11 0
2.999999999987386 -2.103445075013029e-11 0
2.999999999997956 3.612821829022414e-12 0
3.000000000010003 5.940103510644857e-12 0
2.999999999999404 -1.108302340742101e-11 0
2.999999999996869 5.34060847753868e-12 0
3.000000000001399 4.658517397275819e-12 0
3.000000000002549 -2.547569101130981e-12 0
3.000000000002358 1.171744450543413e-12 0
2.999999999991444 -1.162045772619846e-11 0
2.999999999972955 -1.184771268812893e-11 0
3.000000000014223 5.227393096546973e-11 0
3.000000000042595 5.843716479187811e-11 0
3.000000000134727 -1.517670831046666e-10 0
3.000000000147671 -1.17961970537799e-10 0
2.999999999001916 -6.86176198389214e-12 0
2.999999999145873 -2.792345123068828e-10 0
3.000000001753885 2.686441884038884e-09 0
3.00000000005565 2.313659940124359e-09 0
3.000000011826454 1.96837037012894e-10 0
3.000000009025426 3.741059910470567e-09 0
3.000000002276618 -2.624796741870124e-08 0
3.000000012730594 -1.199252632577586e-08 0
2.999999927050594 -1.048879060007161e-07 0
2.999999980687266 -7.005438196188448e-08 0
2.999999710856955 -2.296595564212259e-07 0
2.999999863567896 -1.865262447277085e-07 0
2.999999392258705 -1.351780076547752e-07 0
2.999999644425096 -2.162589092495436e-07 0
2.999999468373653 1.256078194557282e-06 0
2.999999547604868 4.467680605839187e-07 0
3.000001167222423 7.027468001440891e-06 0
3.000000037433426 3.389138840210593e-06 0
3.000006776885838 2.396196268205078e-05 0
3.000001825090196 1.183100273669344e-05 0
3.000018815910815 6.374028145518882e-05 0
3.000005499412304 3.075570758598823e-05 0
3.000038226313746 0.0001426938119746885 0
3.000010806931693 6.587181370765571e-05 0
3.000061737651098 0.000276883903801178 0
3.000016496631913 0.0001224998918348638 0
3.000081568751762 0.0004788928979574124 0
3.000020125009101 0.000206791227426543 0
3.000084223944098 0.000759575385551344 0
3.000014674453787 0.0003233878814877299 0
3.000046124593027 0.001104127667648892 0
2.99999003575783 0.0004510081316833018 0
2.999947278174123 0.001438150515516682 0
2.99994449929167 0.000550084144111952 0
2.999798218195027 0.0016628971191486 0
2.999894353675476 0.0005594830509739322 0
2.999657285322809 0.001620608611748147 0
2.999885849857087 0.00039708460516211 0
2.999648608663588 0.00112837097740663 0
2.999916852261108 0.0002358202850278904 0
2.999745882934744 0.0006696355187480341 0
2.999948796532063 0.0001310977578048747 0
3.000072399674926 -1.610754078323962e-06 0
3.000572302023189 -7.159584163736506e-06 0
3.000000279230099 -2.322637563042492e-07 0
3.000000030445721 -3.555799542150394e-08 0
3.000068361141315 8.127792377564794e-05 0
2.991699056836402 0.00196446398774738 0
3.001481758962688 -3.91619622286507e-05 0
2.999844024586833 0.0003682732095167429 0
2.999973112625217 6.405141154244724e-05 0
2.99928302867838 0.001733583556816758 0
3.00000138858312 -7.141025374034193e-07 0
3.001776907557305 -2.039198790176833e-05 0
3.000633394827152 1.237705460099855e-07 0
3.004013998575152 1.042539135416218e-05 0
3.001550478513196 -5.160638887235456e-05 0
3.000231542391151 -6.18232052483748e-06 0
3.000638363941533 -3.631790631810982e-05 0
3.000086191592955 -4.087152863228764e-06 0
3.000262490488265 -1.079863591584282e-05 0
3.000029881620124 -7.583953807119585e-07 0
3.000091856271475 2.244610979524254e-06 0
3.000008228348779 5.337245543329641e-07 0
3.000828483722634 1.155847506245057e-05 0
3.000001757085845 6.271855545077098e-09 0
3.000000036460676 6.265188718993155e-08 0
2.999917491010829 9.65551225397188e-05 0
2.999553946867061 0.0005050908683068729 0
2.99999996026872 1.268109698602492e-08 0
2.999976725595475 6.808021072859275e-05 0
2.999999294504342 5.265969596166425e-08 0
3.000000000137678 2.905269526810836e-10 0
0.3539990832280211 0.1004779152603506 0
2.999999800230188 3.618737087035134e-09 0
2.999999844345465 -2.929888404873715e-09 0
2.999999933366483 -1.824073483933153e-09 0
2.9999999876071 -2.195739232194453e-09 0
3.000000001397048 -2.925232045019718e-10 0
3.000000002988849 1.39507671160928e-10 0
3.000000000077835 7.268744803279327e-11 0