<?xml version="1.0"?>
<VTKFile type="UnstructuredGrid">
  <UnstructuredGrid>
  <Piece NumberOfPoints="1224"  NumberOfCells="2290">
    <Points>
      <DataArray type="Float64" NumberOfComponents="3" format="ascii">
0 0 0
0.6 0 0
0.6 0.2 0
41 0.2 0
41 1 0
0 1 0
0.05454545454535233 0 0
0.1090909090906768 0 0
0.1636363636359771 0 0
0.2181818181812728 0 0
0.2727272727265793 0 0
0.3272727272720317 0 0
0.3818181818176247 0 0
0.4363636363632168 0 0
0.4909090909088285 0 0
0.5454545454544089 0 0
0.6 0.03999999999991203 0
0.6 0.07999999999979179 0
0.6 0.1199999999997886 0
0.6 0.1599999999998948 0
4.226012896310902 0.2 0
5.36145359322582 0.2 0
6.318071567580063 0.2 0
7.215876314785102 0.2 0
8.077469241643845 0.2 0
8.916154713104667 0.2 0
9.738759287039866 0.2 0
10.5502777814904 0.2 0
11.35381392207072 0.2 0
12.15144551523902 0.2 0
12.94465459715252 0.2 0
13.73450714158135 0.2 0
14.52177654944146 0.2 0
15.30705922133942 0.2 0
16.09078736021389 0.2 0
16.87328836832284 0.2 0
17.65482112117318 0.2 0
18.43558551486139 0.2 0
19.21573812744697 0.2 0
19.99540161177046 0.2 0
20.77467326262359 0.2 0
21.55363005557464 0.2 0
22.33233350926315 0.2 0
23.11083263156585 0.2 0
23.88916679852459 0.2 0
24.66736754651777 0.2 0
25.4454603152403 0.2 0
26.22346556212075 0.2 0
27.00139983870423 0.2 0
27.77927650065735 0.2 0
28.55710637899246 0.2 0
29.33489823836098 0.2 0
30.1126591999917 0.2 0
30.89039504015379 0.2 0
31.66811044684394 0.2 0
32.44580923332392 0.2 0
33.22349460927751 0.2 0
34.00116911805195 0.2 0
34.77883476144407 0.2 0
35.55649333488572 0.2 0
36.33414623489701 0.2 0
37.1117946201959 0.2 0
37.88943948453054 0.2 0
38.66708179338464 0.2 0
39.44472221248085 0.2 0
40.22236142030214 0.2 0
41 0.2533333333332341 0
41 0.3066666666664725 0
41 0.3599999999996274 0
41 0.413333333332804 0
41 0.4666666666659806 0
41 0.5199999999991571 0
41 0.5733333333323336 0
41 0.6266666666656895 0
41 0.6799999999991551 0
41 0.7333333333326146 0
41 0.7866666666660802 0
41 0.8399999999995775 0
41 0.8933333333330373 0
41 0.9466666666664969 0
40.22568535433857 1 0
39.45137128909682 1 0
38.67705841471603 1 0
37.90274741179978 1 0
37.12843900041666 1 0
36.35413400253136 1 0
35.57983345536157 1 0
34.80553838923207 1 0
34.03125041834267 1 0
33.25697102794686 1 0
32.48270230310349 1 0
31.70844686879725 1 0
30.93420753378364 1 0
30.15998828491666 1 0
29.38579333799827 1 0
28.61162869159265 1 0
27.83750064310271 1 0
27.06341849553673 1 0
26.28939121370991 1 0
25.51543302271723 1 0
24.74155784960569 1 0
23.96778654589201 1 0
23.19414238249528 1 0
22.42065387978936 1 0
21.64735713252752 1 0
20.87429650013216 1 0
20.10152620137664 1 0
19.32911367608923 1 0
18.5571436665661 1 0
17.78571367443709 1 0
17.01494691865404 1 0
16.24500958660422 1 0
15.47607182435548 1 0
14.70838108157757 1 0
13.94221565693257 1 0
13.17792121786886 1 0
12.41592177199401 1 0
11.65672743395244 1 0
10.90096195392676 1 0
10.14934894985225 1 0
9.402735888647953 1 0
8.662090541629871 1 0
7.928364991395249 1 0
7.202486129015583 1 0
6.48533476261187 1 0
5.77828236331893 1 0
5.083460060716861 1 0
4.405260356907488 1 0
3.751555588935497 1 0
3.134628472411702 1 0
2.56251549942114 1 0
2.045952332840303 1 0
1.588481849137218 1 0
1.210262205390046 1 0
0.8914953008260471 1 0
0.6246104216119316 1 0
0.3965101884128776 1 0
0.1913973381916755 1 0
0 0.9473684210524125 0
0 0.8947368421048248 0
0 0.8421052631576025 0
0 0.7894736842105994 0
0 0.7368421052635962 0
0 0.6842105263165927 0
0 0.6315789473695894 0
0 0.5789473684225861 0
0 0.5263157894755828 0
0 0.4736842105282874 0
0 0.4210526315806998 0
0 0.3684210526331123 0
0 0.3157894736855248 0
0 0.2631578947379374 0
0 0.21052631579035 0
0 0.1578947368427625 0
0 0.1052631578951749 0
0 0.05263157894758741 0
2.896973111019348 0.955462795473483 0
3.417588508916392 0.2394317949808221 0
7.57664644168818 0.9557759867023439 0
34.46050780912832 0.9559758769411787 0
31.32131845146382 0.9559648099769389 0
28.22454494258114 0.9559648099769389 0
25.12845106427133 0.9559648099772646 0
22.07374144265851 0.9560078743553572 0
18.98189129828193 0.9561420672712786 0
15.86003604130318 0.95627738856474 0
12.79583465620037 0.9563034567995272 0
0.108179931815512 0.5498854761242812 0
10.14700693583316 0.2442383967812095 0
32.8584313394507 0.2421522008426663 0
29.72375832749612 0.243586373321511 0
26.61246342441205 0.24363095694403 0
23.50010385469486 0.2436741865527954 0
20.38523434674804 0.2437170671454607 0
17.26441110694765 0.2437587738062726 0
14.12880439836095 0.2442249255777628 0
1.87536897234846 0.2417757800606361 0
3.288257471706716 0.2785115072887754 0
40.26176645665649 0.5995349944823752 0
2.162136674721005 0.2791940688436214 0
3.178687506412434 0.3180386921514113 0
2.255622072190099 0.3181181454258206 0
3.059698206622855 0.3577335228902347 0
35.99743900600937 0.2416532643303031 0
2.258210746719461 0.3576683284772433 0
2.932041811944845 0.3976917483469583 0
3.710482143326731 0.3977458985417416 0
3.518254653072625 0.4382323507424581 0
4.27321027937928 0.4382172989803606 0
4.046829993740197 0.4790536480492864 0
4.778428228725642 0.4792447281197085 0
3.361350222323217 0.4817209888486334 0
1.378500116633252 0.9660670791366374 0
9.775347977191659 0.9559852449915113 0
4.527447724100802 0.5203953730037822 0
5.246103394718279 0.5205851219036783 0
36.79878610870317 0.9563165682871465 0
0.06814416783589765 0.2894490564426765 0
4.971367927827268 0.5622881188475496 0
5.685172632131392 0.5621981517123112 0
0.1271388100657644 0.7091098825652095 0
0.3073667309803439 0.04723774929726795 0
5.972135387630018 0.5200372393771872 0
6.4039392875424 0.562505099575485 0
5.398257536968739 0.6041261864689124 0
4.697095206103749 0.6041581669226386 0
40.30455519186376 0.4393531299125908 0
6.713241010222797 0.5199435586712576 0
7.137377444289541 0.5624873891767795 0
1.532601707682883 0.3174350849704655 0
1.61068488731929 0.3576870257641042 0
7.459481900087845 0.5195844107098163 0
7.880704846839972 0.5621174250913318 0
5.109224066679157 0.6460588488486728 0
4.424791779309543 0.6462390077748084 0
7.537887127278846 0.6067218912904607 0
8.292430697211579 0.6047738158182728 0
8.630475604596308 0.5617915498272615 0
9.039857805867181 0.6045430073239006 0
9.386888203817442 0.5614360364847856 0
9.792955007814502 0.6046345614192383 0
10.14521706320126 0.5613114208485291 0
10.55046577501748 0.604758732930365 0
10.89985257596562 0.5597386087889248 0
11.31269972385588 0.6042836632406788 0
11.68045335539582 0.5607219500906248 0
12.08037259099528 0.6043040651294929 0
12.45031723743024 0.5598592244124957 0
12.84872625718306 0.6040638744783449 0
13.22164821259512 0.5595216793632644 0
13.61860891245827 0.6038781229769293 0
13.99387578542398 0.5600604284234054 0
14.38959969733843 0.6038664424080111 0
14.75956487712961 0.55874807111347 0
15.16080327159113 0.6035341865995129 0
15.5359543126686 0.5586520846649797 0
15.93430618491558 0.6034054551655909 0
16.31443553167522 0.558835304845746 0
16.70849018967172 0.6032503772964327 0
17.08993513746278 0.5587079795953892 0
17.48291110042065 0.6030926920218221 0
17.86506131614987 0.5580480170404921 0
18.25755354668788 0.6028436706904448 0
18.64034874839028 0.5577680566445021 0
19.03244790104898 0.6026435181305781 0
19.41578422420047 0.5575726351194972 0
19.80758316109488 0.6024617369905624 0
20.19135604344761 0.5573842056888257 0
20.58296576984327 0.6022873884346892 0
20.96703996423512 0.5572075399874397 0
21.35845346055829 0.6021111834258887 0
21.74280402312879 0.5570246051384745 0
22.1340326579396 0.6019307913070558 0
22.51862536755178 0.5568475628142857 0
22.90971979149061 0.6017522495250318 0
23.29449988639002 0.5566653603575672 0
23.68551835124969 0.601574020443024 0
24.07041984649252 0.5564884669211013 0
24.4613503990359 0.601395113412113 0
24.84636898972533 0.5563067813822595 0
25.23715156738878 0.6012129143420911 0
25.62233035817129 0.5561292537946573 0
26.01305162112669 0.601032757987411 0
26.3983207633219 0.5559477304122714 0
26.78907264065981 0.600855564813206 0
27.17434280474853 0.5557710179709322 0
27.56505735892353 0.6006760179252703 0
27.95036970331384 0.5555900146741853 0
28.34102033222985 0.6004921726308964 0
28.72639815699753 0.5554125217101814 0
29.11702050855932 0.6003111949874665 0
29.50243669351928 0.5552312296013228 0
29.89298934833665 0.6001298880828497 0
30.27847863162917 0.5550546947866846 0
30.66902477090438 0.599950595338254 0
31.05456650847683 0.5548708301001631 0
31.4451692625698 0.5997713467128002 0
31.83080471867791 0.5547000681173012 0
32.22149663759384 0.5996004731097838 0
32.60730018027011 0.5545095609010697 0
32.99801827097721 0.5994220729206983 0
33.38424074792966 0.5543494429014709 0
33.77479358384316 0.5993228147833797 0
34.16197828112546 0.5541346321759457 0
34.55356403273001 0.5992395038842441 0
34.94181754760066 0.5540180644105763 0
40.37479452374762 0.7598964409357507 0
35.3352259075079 0.5990918128353608 0
1.08130929994972 0.3159793431387367 0
1.16804370295209 0.357715436029677 0
0.7997247095475822 0.3157219358498637 0
0.864316620688846 0.3576135465858128 0
32.60984108914693 0.643990885448769 0
29.50749040752098 0.6444881680698032 0
10.94770157449304 0.6487487015028032 0
26.40376612386716 0.6452136474256573 0
23.30063218869997 0.6459229900926835 0
0.6141531272485198 0.3150377509381005 0
0.6571319913827156 0.3574251905568473 0
0.897950606522521 0.4002519798591844 0
20.19901718525329 0.6466170330762969 0
14.01455505603241 0.6479317947648683 0
17.10183279600624 0.6473399689389928 0
8.699809589983486 0.6483605753517908 0
4.824751633182626 0.6883083412871458 0
4.154855084587255 0.6885103796531055 0
35.72396893296758 0.5527758280498023 0
12.03650584518965 0.5148848291986879 0
34.94559915944266 0.6438096025956825 0
35.72871131942097 0.6437140715169269 0
15.91259715518432 0.5138574114565649 0
19.01794517257118 0.5115839513085039 0
22.12278113907195 0.5109012431757174 0
25.22775566737615 0.510388685431229 0
0.6779790165333042 0.4001745965167012 0
0.9038483448934046 0.4433206937839571 0
28.33279292477873 0.5096846626216972 0
[...]
    <PointData>
      <DataArray type="Float64" NumberOfComponents="3" Name="Velocity" format="ascii">
-nan -nan 0
-nan -nan 0
-nan -nan 0
-nan -nan 0
-nan -nan 0
-nan -nan 0
-nan -nan 0
-nan -nan 0
-nan -nan 0
-nan -nan 0
-nan -nan 0
-nan -nan 0
-nan -nan 0
-nan -nan 0
-nan -nan 0
-nan -nan 0
-nan -nan 0
-nan -nan 0
-nan -nan 0
-nan -nan 0
-nan -nan 0
-nan -nan 0
-nan -nan 0
-nan -nan 0
-nan -nan 0
-nan -nan 0
-nan -nan 0
-nan -nan 0
-nan -nan 0
-nan -nan 0
-nan -nan 0
-nan -nan 0
-nan -nan 0
-nan -nan 0
-nan -nan 0
-nan -nan 0
-nan -nan 0
-nan -nan 0
-nan -nan 0
-nan -nan 0
-nan -nan 0
-nan -nan 0
-nan -nan 0
-nan -nan 0
-nan -nan 0
-nan -nan 0
-nan -nan 0
-nan -nan 0
-nan -nan 0
-nan -nan 0
-nan -nan 0
-nan -nan 0
-nan -nan 0
-nan -nan 0
-nan -nan 0
-nan -nan 0
-nan -nan 0
-nan -nan 0
-nan -nan 0
-nan -nan 0
-nan -nan 0
-nan -nan 0
-nan -nan 0
-nan -nan 0
-nan -nan 0
-nan -nan 0
-nan -nan 0
-nan -nan 0
-nan -nan 0
-nan -nan 0
-nan -nan 0
-nan -nan 0
-nan -nan 0
-nan -nan 0
-nan -nan 0
-nan -nan 0
-nan -nan 0
-nan -nan 0
-nan -nan 0
-nan -nan 0
-nan -nan 0
-nan -nan 0
-nan -nan 0
-nan -nan 0
-nan -nan 0
-nan -nan 0
-nan -nan 0
-nan -nan 0
-nan -nan 0
-nan -nan 0
-nan -nan 0
-nan -nan 0
-nan -nan 0
-nan -nan 0
-nan -nan 0
-nan -nan 0
-nan -nan 0
-nan -nan 0
-nan -nan 0
-nan -nan 0
-nan -nan 0
-nan -nan 0
-nan -nan 0
-nan -nan 0
-nan -nan 0
-nan -nan 0
-nan -nan 0
-nan -nan 0
-nan -nan 0
-nan -nan 0
-nan -nan 0
-nan -nan 0
-nan -nan 0
-nan -nan 0
-nan -nan 0
-nan -nan 0
-nan -nan 0
-nan -nan 0
-nan -nan 0
-nan -nan 0
-nan -nan 0
-nan -nan 0
-nan -nan 0
-nan -nan 0
-nan -nan 0
-nan -nan 0
-nan -nan 0
-nan -nan 0
-nan -nan 0
-nan -nan 0
-nan -nan 0
-nan -nan 0
-nan -nan 0
-nan -nan 0
-nan -nan 0
-nan -nan 0
-nan -nan 0
-nan -nan 0
-nan -nan 0
-nan -nan 0
-nan -nan 0
-nan -nan 0
-nan -nan 0
-nan -nan 0
-nan -nan 0
-nan -nan 0
-nan -nan 0
-nan -nan 0
-nan -nan 0
-nan -nan 0
-nan -nan 0
-nan -nan 0
-nan -nan 0
-nan -nan 0
-nan -nan 0
-nan -nan 0
-nan -nan 0
-nan -nan 0
-nan -nan 0
-nan -nan 0
-nan -nan 0
-nan -nan 0
-nan -nan 0
-nan -nan 0
-nan -nan 0
-nan -nan 0
-nan -nan 0
-nan -nan 0
-nan -nan 0
-nan -nan 0
-nan -nan 0
-nan -nan 0
-nan -nan 0
-nan -nan 0
-nan -nan 0
-nan -nan 0
-nan -nan 0
-nan -nan 0
-nan -nan 0
-nan -nan 0
-nan -nan 0
-nan -nan 0
-nan -nan 0
-nan -nan 0
-nan -nan 0
-nan -nan 0
-nan -nan 0
-nan -nan 0
-nan -nan 0
-nan -nan 0
-nan -nan 0
-nan -nan 0
-nan -nan 0
-nan -nan 0
-nan -nan 0
-nan -nan 0
-nan -nan 0
-nan -nan 0
-nan -nan 0
-nan -nan 0
-nan -nan 0
-nan -nan 0
-nan -nan 0
-nan -nan 0
-nan -nan 0
-nan -nan 0
-nan -nan 0
-nan -nan 0
-nan -nan 0
-nan -nan 0
-nan -nan 0
-nan -nan 0
-nan -nan 0
-nan -nan 0
-nan -nan 0
-nan -nan 0
-nan -nan 0
-nan -nan 0
-nan -nan 0
-nan -nan 0
-nan -nan 0
-nan -nan 0
-nan -nan 0
-nan -nan 0
-nan -nan 0
-nan -nan 0
-nan -nan 0
-nan -nan 0
-nan -nan 0
-nan -nan 0
-nan -nan 0
-nan -nan 0
-nan -nan 0
-nan -nan 0
-nan -nan 0
-nan -nan 0
-nan -nan 0
-nan -nan 0
-nan -nan 0
-nan -nan 0
-nan -nan 0
-nan -nan 0
-nan -nan 0
-nan -nan 0
-nan -nan 0
-nan -nan 0
-nan -nan 0
-nan -nan 0
-nan -nan 0
-nan -nan 0
-nan -nan 0
-nan -nan 0
-nan -nan 0
-nan -nan 0
-nan -nan 0
-nan -nan 0
-nan -nan 0
-nan -nan 0
-nan -nan 0
-nan -nan 0
-nan -nan 0
-nan -nan 0
-nan -nan 0
-nan -nan 0
-nan -nan 0
-nan -nan 0
-nan -nan 0
-nan -nan 0
-nan -nan 0
-nan -nan 0
-nan -nan 0
-nan -nan 0
-nan -nan 0
-nan -nan 0
-nan -nan 0
-nan -nan 0
-nan -nan 0
-nan -nan 0
-nan -nan 0
-nan -nan 0
-nan -nan 0
-nan -nan 0
-nan -nan 0
-nan -nan 0
-nan -nan 0
-nan -nan 0
-nan -nan 0
-nan -nan 0
-nan -nan 0
-nan -nan 0
-nan -nan 0
-nan -nan 0
-nan -nan 0
-nan -nan 0
-nan -nan 0
-nan -nan 0
-nan -nan 0
-nan -nan 0
-nan -nan 0
-nan -nan 0
-nan -nan 0
-nan -nan 0
-nan -nan 0
-nan -nan 0
-nan -nan 0
-nan -nan 0
-nan -nan 0
-nan -nan 0
-nan -nan 0
-nan -nan 0
-nan -nan 0
-nan -nan 0
-nan -nan 0
-nan -nan 0
-nan -nan 0
-nan -nan 0
-nan -nan 0
-nan -nan 0
-nan -nan 0
-nan -nan 0
-nan -nan 0
-nan -nan 0
-nan -nan 0
-nan -nan 0
-nan -nan 0
-nan -nan 0
-nan -nan 0
-nan -nan 0
-nan -nan 0
-nan -nan 0
-nan -nan 0
-nan -nan 0
-nan -nan 0
-nan -nan 0
-nan -nan 0
-nan -nan 0
-nan -nan 0
-nan -nan 0
-nan -nan 0
-nan -nan 0
-nan -nan 0
-nan -nan 0
-nan -nan 0
-nan -nan 0
-nan -nan 0
-nan -nan 0
-nan -nan 0
-nan -nan 0
-nan -nan 0
-nan -nan 0
-nan -nan 0
-nan -nan 0
-nan -nan 0
-nan -nan 0
-nan -nan 0
-nan -nan 0
-nan -nan 0
-nan -nan 0
-nan -nan 0
-nan -nan 0
-nan -nan 0
-nan -nan 0
-nan -nan 0
-nan -nan 0
-nan -nan 0
-nan -nan 0
-nan -nan 0
-nan -nan 0
-nan -nan 0
-nan -nan 0
-nan -nan 0
-nan -nan 0
-nan -nan 0
-nan -nan 0
-nan -nan 0
-nan -nan 0
-nan -nan 0
-nan -nan 0
-nan -nan 0
-nan -nan 0
-nan -nan 0
-nan -nan 0
-nan -nan 0
-nan -nan 0
-nan -nan 0
-nan -nan 0
-nan -nan 0
-nan -nan 0
-nan -nan 0
-nan -nan 0
-nan -nan 0
-nan -nan 0
-nan -nan 0
-nan -nan 0
-nan -nan 0
-nan -nan 0
-nan -nan 0
-nan -nan 0
-nan -nan 0
-nan -nan 0
-nan -nan 0
-nan -nan 0
-nan -nan 0
-nan -nan 0
-nan -nan 0
-nan -nan 0
-nan -nan 0
-nan -nan 0
-nan -nan 0
-nan -nan 0
-nan -nan 0
-nan -nan 0
-nan -nan 0
-nan -nan 0
-nan -nan 0
-nan -nan 0
-nan -nan 0
-nan -nan 0
-nan -nan 0
-nan -nan 0
-nan -nan 0
-nan -nan 0
-nan -nan 0
-nan -nan 0
-nan -nan 0
-nan -nan 0
-nan -nan 0
-nan -nan 0
-nan -nan 0
-nan -nan 0
-nan -nan 0
-nan -nan 0
-nan -nan 0
-nan -nan 0
-nan -nan 0
-nan -nan 0
-nan -nan 0
-nan -nan 0
-nan -nan 0
-nan -nan 0
-nan -nan 0
-nan -nan 0
-nan -nan 0
-nan -nan 0
-nan -nan 0
-nan -nan 0
-nan -nan 0
-nan -nan 0
-nan -nan 0
-nan -nan 0
-nan -nan 0
-nan -nan 0
-nan -nan 0
-nan -nan 0
-nan -nan 0
-nan -nan 0
-nan -nan 0
-nan -nan 0
-nan -nan 0
-nan -nan 0
-nan -nan 0
-nan -nan 0
-nan -nan 0
-nan -nan 0
-nan -nan 0
-nan -nan 0
-nan -nan 0
-nan -nan 0
-nan -nan 0
-nan -nan 0
-nan -nan 0
-nan -nan 0
-nan -nan 0
-nan -nan 0
-nan -nan 0
-nan -nan 0
-nan -nan 0
-nan -nan 0
-nan -nan 0
-nan -nan 0
-nan -nan 0
-nan -nan 0
-nan -nan 0
-nan -nan 0
-nan -nan 0
-nan -nan 0
-nan -nan 0
-nan -nan 0
-nan -nan 0
-nan -nan 0
-nan -nan 0
-nan -nan 0
-nan -nan 0
-nan -nan 0
-nan -nan 0
-nan -nan 0
-nan -nan 0
-nan -nan 0
-nan -nan 0
-nan -nan 0
-nan -nan 0
-nan -nan 0
-nan -nan 0
-nan -nan 0
-nan -nan 0
-nan -nan 0
-nan -nan 0
-nan -nan 0
-nan -nan 0
-nan -nan 0
-nan -nan 0
-nan -nan 0
-nan -nan 0
-nan -nan 0
-nan -nan 0
-nan -nan 0
-nan -nan 0
-nan -nan 0
-nan -nan 0
-nan -nan 0
-nan -nan 0
-nan -nan 0
-nan -nan 0
-nan -nan 0
-nan -nan 0
-nan -nan 0
-nan -nan 0
-nan -nan 0
-nan -nan 0
-nan -nan 0
-nan -nan 0
-nan -nan 0
-nan -nan 0
-nan -nan 0
-nan -nan 0
-nan -nan 0
-nan -nan 0
-nan -nan 0
-nan -nan 0
-nan -nan 0
-nan -nan 0
-nan -nan 0
-nan -nan 0
-nan -nan 0
-nan -nan 0
-nan -nan 0
-nan -nan 0
-nan -nan 0
-nan -nan 0
-nan -nan 0
-nan -nan 0
-nan -nan 0
-nan -nan 0
-nan -nan 0
-nan -nan 0
-nan -nan 0
-nan -nan 0
-nan -nan 0
-nan -nan 0
-nan -nan 0
-nan -nan 0
-nan -nan 0
-nan -nan 0
-nan -nan 0
-nan -nan 0
-nan -nan 0
-nan -nan 0
-nan -nan 0
-nan -nan 0
-nan -nan 0
-nan -nan 0
-nan -nan 0
-nan -nan 0
-nan -nan 0
-nan -nan 0
-nan -nan 0
-nan -nan 0
-nan -nan 0
-nan -nan 0
-nan -nan 0
-nan -nan 0
-nan -nan 0
-nan -nan 0
-nan -nan 0
-nan -nan 0
-nan -nan 0
-nan -nan 0
-nan -nan 0
-nan -nan 0
-nan -nan 0
-nan -nan 0
-nan -nan 0
-nan -nan 0
-nan -nan 0
-nan -nan 0
-nan -nan 0
-nan -nan 0
-nan -nan 0
-nan -nan 0
-nan -nan 0
-nan -nan 0
-nan -nan 0
-nan -nan 0
-nan -nan 0
-nan -nan 0
-nan -nan 0
-nan -nan 0
-nan -nan 0
-nan -nan 0
-nan -nan 0
-nan -nan 0
-nan -nan 0
-nan -nan 0
-nan -nan 0
-nan -nan 0
-nan -nan 0
-nan -nan 0
-nan -nan 0
-nan -nan 0
-nan -nan 0
-nan -nan 0
-nan -nan 0
-nan -nan 0
-nan -nan 0
-nan -nan 0
-nan -nan 0
-nan -nan 0
-nan -nan 0
-nan -nan 0
-nan -nan 0
-nan -nan 0
-nan -nan 0
-nan -nan 0
-nan -nan 0
-nan -nan 0
-nan -nan 0
-nan -nan 0
-nan -nan 0
-nan -nan 0
-nan -nan 0
-nan -nan 0
-nan -nan 0
-nan -nan 0
-nan -nan 0
-nan -nan 0
-nan -nan 0
-nan -nan 0
-nan -nan 0
-nan -nan 0
-nan -nan 0
-nan -nan 0
-nan -nan 0
-nan -nan 0
-nan -nan 0
-nan -nan 0
-nan -nan 0
-nan -nan 0
-nan -nan 0
-nan -nan 0
-nan -nan 0
-nan -nan 0
-nan -nan 0
-nan -nan 0
-nan -nan 0
-nan -nan 0
-nan -nan 0
-nan -nan 0
-nan -nan 0
-nan -nan 0
-nan -nan 0
-nan -nan 0
-nan -nan 0
-nan -nan 0
-nan -nan 0
-nan -nan 0
-nan -nan 0
-nan -nan 0
-nan -nan 0
-nan -nan 0
-nan -nan 0
-nan -nan 0
-nan -nan 0
-nan -nan 0
-nan -nan 0
-nan -nan 0
-nan -nan 0
-nan -nan 0
-nan -nan 0
-nan -nan 0
-nan -nan 0
-nan -nan 0
-nan -nan 0
-nan -nan 0
-nan -nan 0
-nan -nan 0
-nan -nan 0
-nan -nan 0
-nan -nan 0
-nan -nan 0
-nan -nan 0
-nan -nan 0
-nan -nan 0
-nan -nan 0
-nan -nan 0
-nan -nan 0
-nan -nan 0
-nan -nan 0
-nan -nan 0
-nan -nan 0
-nan -nan 0
-nan -nan 0
-nan -nan 0
-nan -nan 0
-nan -nan 0
-nan -nan 0
-nan -nan 0
-nan -nan 0
-nan -nan 0
-nan -nan 0
-nan -nan 0
-nan -nan 0
-nan -nan 0
-nan -nan 0
-nan -nan 0
-nan -nan 0
-nan -nan 0
-nan -nan 0
-nan -nan 0
-nan -nan 0
-nan -nan 0
-nan -nan 0
-nan -nan 0
-nan -nan 0
-nan -nan 0
-nan -nan 0
-nan -nan 0
-nan -nan 0
-nan -nan 0
-nan -nan 0
-nan -nan 0
-nan -nan 0
-nan -nan 0
-nan -nan 0
-nan -nan 0
-nan -nan 0
-nan -nan 0
-nan -nan 0
-nan -nan 0
-nan -nan 0
-nan -nan 0
-nan -nan 0
-nan -nan 0
-nan -nan 0
-nan -nan 0
-nan -nan 0
-nan -nan 0
-nan -nan 0
-nan -nan 0
-nan -nan 0
-nan -nan 0
-nan -nan 0
-nan -nan 0
-nan -nan 0
-nan -nan 0
-nan -nan 0
-nan -nan 0
-nan -nan 0
-nan -nan 0
-nan -nan 0
-nan -nan 0
-nan -nan 0
-nan -nan 0
-nan -nan 0
-nan -nan 0
-nan -nan 0
-nan -nan 0
-nan -nan 0
-nan -nan 0
-nan -nan 0
-nan -nan 0
-nan -nan 0
-nan -nan 0
-nan -nan 0
-nan -nan 0
-nan -nan 0
-nan -nan 0
-nan -nan 0
-nan -nan 0
-nan -nan 0
-nan -nan 0
-nan -nan 0
-nan -nan 0
-nan -nan 0
-nan -nan 0
-nan -nan 0
-nan -nan 0
-nan -nan 0
-nan -nan 0
-nan -nan 0
-nan -nan 0
-nan -nan 0
-nan -nan 0
-nan -nan 0
-nan -nan 0
-nan -nan 0
-nan -nan 0
-nan -nan 0
-nan -nan 0
-nan -nan 0
-nan -nan 0
-nan -nan 0
-nan -nan 0
-nan -nan 0
-nan -nan 0
-nan -nan 0
-nan -nan 0
-nan -nan 0
-nan -nan 0
-nan -nan 0
-nan -nan 0
-nan -nan 0
-nan -nan 0
-nan -nan 0
-nan -nan 0
-nan -nan 0
-nan -nan 0
-nan -nan 0
-nan -nan 0
-nan -nan 0
-nan -nan 0
-nan -nan 0
-nan -nan 0
-nan -nan 0
-nan -nan 0
-nan -nan 0
-nan -nan 0
-nan -nan 0
-nan -nan 0
-nan -nan 0
-nan -nan 0
-nan -nan 0
-nan -nan 0
-nan -nan 0
-nan -nan 0
-nan -nan 0
-nan -nan 0
-nan -nan 0
-nan -nan 0
-nan -nan 0
-nan -nan 0
-nan -nan 0
-nan -nan 0
-nan -nan 0
-nan -nan 0
-nan -nan 0
-nan -nan 0
-nan -nan 0
-nan -nan 0
-nan -nan 0
-nan -nan 0
-nan -nan 0
-nan -nan 0
-nan -nan 0
-nan -nan 0
-nan -nan 0
-nan -nan 0
-nan -nan 0
-nan -nan 0
-nan -nan 0
-nan -nan 0
-nan -nan 0
-nan -nan 0
-nan -nan 0
-nan -nan 0
-nan -nan 0
-nan -nan 0
-nan -nan 0
-nan -nan 0
-nan -nan 0
-nan -nan 0
-nan -nan 0
-nan -nan 0
-nan -nan 0
-nan -nan 0
-nan -nan 0
-nan -nan 0
-nan -nan 0
-nan -nan 0
-nan -nan 0
-nan -nan 0
-nan -nan 0
-nan -nan 0
-nan -nan 0
-nan -nan 0
-nan -nan 0
-nan -nan 0
-nan -nan 0
-nan -nan 0
-nan -nan 0
-nan -nan 0
-nan -nan 0
-nan -nan 0
-nan -nan 0
-nan -nan 0
-nan -nan 0
-nan -nan 0
-nan -nan 0
-nan -nan 0
-nan -nan 0
-nan -nan 0
-nan -nan 0
-nan -nan 0
-nan -nan 0
-nan -nan 0
-nan -nan 0
-nan -nan 0
-nan -nan 0
-nan -nan 0
-nan -nan 0
-nan -nan 0
-nan -nan 0
-nan -nan 0
-nan -nan 0
-nan -nan 0
-nan -nan 0
-nan -nan 0
-nan -nan 0
-nan -nan 0
-nan -nan 0
-nan -nan 0
-nan -nan 0
-nan -nan 0
-nan -nan 0
-nan -nan 0
-nan -nan 0
-nan -nan 0
-nan -nan 0
-nan -nan 0
-nan -nan 0
-nan -nan 0
-nan -nan 0
-nan -nan 0
-nan -nan 0
-nan -nan 0
-nan -nan 0
-nan -nan 0
-nan -nan 0
-nan -nan 0
-nan -nan 0
-nan -nan 0
-nan -nan 0
-nan -nan 0
-nan -nan 0
-nan -nan 0
-nan -nan 0
-nan -nan 0
-nan -nan 0
-nan -nan 0
-nan -nan 0
-nan -nan 0
-nan -nan 0
-nan -nan 0
-nan -nan 0
-nan -nan 0
-nan -nan 0
-nan -nan 0
-nan -nan 0
-nan -nan 0
-nan -nan 0
-nan -nan 0
-nan -nan 0
-nan -nan 0
-nan -nan 0
-nan -nan 0
-nan -nan 0
-nan -nan 0
-nan -nan 0
-nan -nan 0
-nan -nan 0
-nan -nan 0
-nan -nan 0
-nan -nan 0
-nan -nan 0
-nan -nan 0
-nan -nan 0
-nan -nan 0
-nan -nan 0
-nan -nan 0
-nan -nan 0
-nan -nan 0
-nan -nan 0
-nan -nan 0
-nan -nan 0
-nan -nan 0
-nan -nan 0
-nan -nan 0
-nan -nan 0
-nan -nan 0
-nan -nan 0
-nan -nan 0
-nan -nan 0
-nan -nan 0
-nan -nan 0
-nan -nan 0
-nan -nan 0
-nan -nan 0
-nan -nan 0
-nan -nan 0
-nan -nan 0
-nan -nan 0
-nan -nan 0
-nan -nan 0
-nan -nan 0
-nan -nan 0
-nan -nan 0
-nan -nan 0
-nan -nan 0
-nan -nan 0
-nan -nan 0
-nan -nan 0
-nan -nan 0
-nan -nan 0
-nan -nan 0
-nan -nan 0
-nan -nan 0
-nan -nan 0
-nan -nan 0
-nan -nan 0
-nan -nan 0
-nan -nan 0
-nan -nan 0
-nan -nan 0
-nan -nan 0
-nan -nan 0
-nan -nan 0
-nan -nan 0
-nan -nan 0
-nan -nan 0
-nan -nan 0
-nan -nan 0
-nan -nan 0
-nan -nan 0
-nan -nan 0
-nan -nan 0
-nan -nan 0
-nan -nan 0
-nan -nan 0
-nan -nan 0
-nan -nan 0
-nan -nan 0
-nan -nan 0
-nan -nan 0
-nan -nan 0
-nan -nan 0
-nan -nan 0
-nan -nan 0
-nan -nan 0
-nan -nan 0
-nan -nan 0
-nan -nan 0
-nan -nan 0
-nan -nan 0
-nan -nan 0
-nan -nan 0
-nan -nan 0
-nan -nan 0
-nan -nan 0
-nan -nan 0
-nan -nan 0
-nan -nan 0
-nan -nan 0
-nan -nan 0
-nan -nan 0
-nan -nan 0
-nan -nan 0
-nan -nan 0
-nan -nan 0
-nan -nan 0
-nan -nan 0
-nan -nan 0
-nan -nan 0
-nan -nan 0
-nan -nan 0
-nan -nan 0
-nan -nan 0
-nan -nan 0
-nan -nan 0
-nan -nan 0
-nan -nan 0
-nan -nan 0
-nan -nan 0
-nan -nan 0
-nan -nan 0
-nan -nan 0
-nan -nan 0
-nan -nan 0
-nan -nan 0
-nan -nan 0
-nan -nan 0
-nan -nan 0
-nan -nan 0
-nan -nan 0
-nan -nan 0
-nan -nan 0
-nan -nan 0
-nan -nan 0
-nan -nan 0
-nan -nan 0
-nan -nan 0
-nan -nan 0
-nan -nan 0
-nan -nan 0
-nan -nan 0
-nan -nan 0
-nan -nan 0
-nan -nan 0
-nan -nan 0
-nan -nan 0
-nan -nan 0
-nan -nan 0
-nan -nan 0
-nan -nan 0
-nan -nan 0
-nan -nan 0
-nan -nan 0
-nan -nan 0
-nan -nan 0
-nan -nan 0
-nan -nan 0
-nan -nan 0
-nan -nan 0
-nan -nan 0
-nan -nan 0
-nan -nan 0
-nan -nan 0
-nan -nan 0
-nan -nan 0
-nan -nan 0
-nan -nan 0
-nan -nan 0
-nan -nan 0
-nan -nan 0
-nan -nan 0
-nan -nan 0
-nan -nan 0
-nan -nan 0
-nan -nan 0
-nan -nan 0
-nan -nan 0
-nan -nan 0
-nan -nan 0
-nan -nan 0
-nan -nan 0
-nan -nan 0
-nan -nan 0
-nan -nan 0
-nan -nan 0
-nan -nan 0
-nan -nan 0
-nan -nan 0
-nan -nan 0
-nan -nan 0
-nan -nan 0
-nan -nan 0
-nan -nan 0
-nan -nan 0
-nan -nan 0
-nan -nan 0
-nan -nan 0
-nan -nan 0
-nan -nan 0
-nan -nan 0
-nan -nan 0
-nan -nan 0
-nan -nan 0
-nan -nan 0
-nan -nan 0
-nan -nan 0
-nan -nan 0
-nan -nan 0
-nan -nan 0
-nan -nan 0
-nan -nan 0
-nan -nan 0
-nan -nan 0
-nan -nan 0
-nan -nan 0
-nan -nan 0
-nan -nan 0
-nan -nan 0
-nan -nan 0
-nan -nan 0
-nan -nan 0
-nan -nan 0
-nan -nan 0
-nan -nan 0
-nan -nan 0
-nan -nan 0
-nan -nan 0
-nan -nan 0
-nan -nan 0
-nan -nan 0
-nan -nan 0
-nan -nan 0
-nan -nan 0
-nan -nan 0
-nan -nan 0
-nan -nan 0
-nan -nan 0
-nan -nan 0
-nan -nan 0
-nan -nan 0
-nan -nan 0
-nan -nan 0
-nan -nan 0
-nan -nan 0
-nan -nan 0
-nan -nan 0
-nan -nan 0
-nan -nan 0
-nan -nan 0
-nan -nan 0
-nan -nan 0
-nan -nan 0
      </DataArray> 
      <DataArray type="Float64" NumberOfComponents="3" Name="MeshDisp" format="ascii">
0 0 0
0 0 0
0 0 0
0.9999999999999999 0 0
1 0 0
0 0 0
0 0 0
0 0 0
0 0 0
0 0 0
0 0 0
0 0 0
0 0 0
0 0 0
0 0 0
0 0 0
0 0 0
0 0 0
0 0 0
0 0 0
0.08990453463491069 0 0
0.1180144094977442 0 0
0.1416927845949009 0 0
0.1639159400241169 0 0
0.1852415262830488 0 0
0.2059987256003079 0 0
0.2263572266519094 0 0
0.2464409666617443 0 0
0.2663269250225223 0 0
0.2860666151863092 0 0
0.3056967764305224 0 0
0.3252438246808211 0 0
0.3447269159918076 0 0
0.3641608223455682 0 0
0.3835562467629884 0 0
0.4029212954697278 0 0
0.4222623778819791 0 0
0.4415844425559251 0 0
0.4608913654782048 0 0
0.4801861826170049 0 0
0.4994713021825943 0 0
0.5187486293671836 0 0
0.5380196867651712 0 0
0.5572856872947107 0 0
0.5765476054786564 0 0
0.5958062218018614 0 0
0.6150621658590657 0 0
0.6343159439362378 0 0
0.6535679656535707 0 0
0.672818561537185 0 0
0.692067999632261 0 0
0.7113164968450288 0 0
0.7305642294102495 0 0
0.7498113402775929 0 0
0.7690579454643284 0 0
0.7883041393399085 0 0
0.8075500013365773 0 0
0.8267955943962374 0 0
0.8460409680586648 0 0
0.8652861667565724 0 0
0.8845312250505374 0 0
0.9037761716160851 0 0
0.9230210310461301 0 0
0.942265827234103 0 0
0.9615105766550489 0 0
0.9807552960998098 0 0
1 0 0
1 0 0
1 0 0
1 0 0
0.9999999999999999 0 0
1 0 0
0.9999999999999999 0 0
0.9999999999999999 0 0
0.9999999999999999 0 0
1 0 0
1 0 0
1 0 0
1 0 0
0.9999999999999999 0 0
0.9808375555555366 0 0
0.961675125475063 0 0
0.9425127248655492 0 0
0.9233503705703154 0 0
0.9041880804093443 0 0
0.8850258747242986 0 0
0.8658637791838371 0 0
0.8467018192860345 0 0
0.8275400349784618 0 0
0.8083784630175692 0 0
0.789217155003531 0 0
0.7700561758983397 0 0
0.7508955952118492 0 0
0.7317355116088636 0 0
0.7125760294200517 0 0
0.6934172970947263 0 0
0.6742594704775448 0 0
0.6551027797935544 0 0
0.6359474468982329 0 0
0.6167938238226048 0 0
0.5976422552216254 0 0
0.5784932571056346 0 0
0.5593474053545419 0 0
0.5402054057464556 0 0
0.5210681514888992 0 0
0.5019367402836835 0 0
0.4828125137858248 0 0
0.463697140742781 0 0
0.4445927179625772 0 0
0.4255016578274265 0 0
0.4064270088524365 0 0
0.3873728823444653 0 0
0.3683434869613287 0 0
0.349344942367262 0 0
0.3303841297227035 0 0
0.3114695937406286 0 0
0.2926118122082518 0 0
0.2738233878085786 0 0
0.2551197218073913 0 0
0.2365186735576779 0 0
0.2180411390365908 0 0
0.1997109170301749 0 0
0.1815512999154155 0 0
0.1635846364988886 0 0
0.1458315647064206 0 0
0.1283243383929515 0 0
0.1111147673926149 0 0
0.09431185999513357 0 0
0.07811909348177451 0 0
0.06287352740944187 0 0
0.04881024063148161 0 0
0.03626799194437656 0 0
0.02542365712728207 0 0
0.01712906930579599 0 0
0.01086225410155624 0 0
0.00647694690789636 0 0
0.003562963098994719 0 0
0.001516182308732132 0 0
0 0 0
0 0 0
0 0 0
0 0 0
0 0 0
0 0 0
0 0 0
0 0 0
0 0 0
0 0 0
0 0 0
0 0 0
0 0 0
0 0 0
0 0 0
0 0 0
0 0 0
0 0 0
0.05701876389475697 0 0
0.06986507679000491 0 0
0.1728459066284054 0 0
0.8381631336754829 0 0
0.7604756690177857 0 0
0.6838378956456096 0 0
0.6072169414266123 0 0
0.5316201485060531 0 0
0.4551042123747628 0 0
0.3778456964111873 0 0
0.3020138126454978 0 0
0.0004049929247999432 0 0
0.2364607172576496 0 0
0.7985155543373652 0 0
0.720939858482301 0 0
0.6439427151421673 0 0
0.5669192236045925 0 0
0.4898336155063966 0 0
0.4126006562249629 0 0
0.3350017699041718 0 0
0.03162169552338657 0 0
0.06666629617544477 0 0
0.9817304769571102 0 0
0.03876722720548575 0 0
0.0639552421128415 0 0
0.04110906532010362 0 0
0.06101194879449549 0 0
0.8761985225712629 0 0
0.04119363656616619 0 0
0.05785658771956379 0 0
0.07712177887956016 0 0
0.07236176716501465 0 0
0.0910561153562562 0 0
0.08544781697316378 0 0
0.1035674814994127 0 0
0.06847804638032073 0 0
0.0207372902996044 0 0
0.2272627552823131 0 0
0.09734957233950424 0 0
0.1151490405824665 0 0
0.8960299559843002 0 0
-0.000130736569719607 0 0
0.108343632715056 0 0
0.1260213463543388 0 0
0.0007834433307574591 0 0
-0.0006857590876679934 0 0
0.1331271924006301 0 0
0.1438173087394404 0 0
0.1189155854658958 0 0
0.1015488017874489 0 0
0.9827893963070818 0 0
0.1514742762874192 0 0
0.1619730531671737 0 0
0.02317173563824457 0 0
0.02517609345386018 0 0
0.1699458058508362 0 0
0.1803715511360755 0 0
0.1117562095884386 0 0
0.09480222982277221 0 0
0.17188647464371 0 0
0.1905619044445775 0 0
0.1989284032173312 0 0
0.2090603106752201 0 0
0.2176489193522354 0 0
0.2276985027025813 0 0
0.2364164214172379 0 0
0.2464456106737681 0 0
0.255092273578998 0 0
0.265309416308639 0 0
0.2744105581566605 0 0
0.2843077052190923 0 0
0.2934630278481735 0 0
0.3033227630856336 0 0
0.3125517389529831 0 0
0.3223756088184719 0 0
0.331662598751793 0 0
0.3414558468963871 0 0
0.350611621583067 0 0
0.3605413313189703 0 0
0.3698254373011953 0 0
0.3796837070152566 0 0
0.3890910103645711 0 0
0.3988429307663508 0 0
0.4082827895538403 0 0
0.4180080127171893 0 0
0.4274653236168424 0 0
0.4371785742550169 0 0
0.4466518460177961 0 0
0.4563553681061767 0 0
0.465842030715678 0 0
0.4755381226725598 0 0
0.4850355886929701 0 0
0.4947269978246617 0 0
0.5042319203576904 0 0
0.5139184730661843 0 0
0.5234302349027129 0 0
0.5331122126065807 0 0
0.5426299669117606 0 0