<?xml version="1.0"?>
<VTKFile type="UnstructuredGrid">
  <UnstructuredGrid>
  <Piece NumberOfPoints="1224"  NumberOfCells="2290">
    <Points>
      <DataArray type="Float64" NumberOfComponents="3" format="ascii">
0 0 0
0.6 0 0
0.6 0.2 0
94 0.2 0
94 1 0
0 1 0
0.05454545454535233 0 0
0.1090909090906768 0 0
0.1636363636359771 0 0
0.2181818181812728 0 0
0.2727272727265793 0 0
0.3272727272720317 0 0
0.3818181818176247 0 0
0.4363636363632168 0 0
0.4909090909088285 0 0
0.5454545454544089 0 0
0.6 0.03999999999991203 0
0.6 0.07999999999979179 0
0.6 0.1199999999997886 0
0.6 0.1599999999998948 0
8.834469552464453 0.2 0
11.42875799270321 0.2 0
13.62449340585207 0.2 0
15.68962913402049 0.2 0
17.67571577326945 0.2 0
19.61266232543109 0.2 0
21.51434209924597 0.2 0
23.39175086406371 0.2 0
25.25174896315318 0.2 0
27.09893183112966 0.2 0
28.93651273520333 0.2 0
30.76679108821121 0.2 0
32.59146882317027 0.2 0
34.41182169432955 0.2 0
36.22878530142172 0.2 0
38.04307743226609 0.2 0
39.85525787135801 0.2 0
41.66576194782171 0.2 0
43.4749293818977 0.2 0
45.28302771865437 0.2 0
47.09026848804789 0.2 0
48.89681982016265 0.2 0
50.70281556808283 0.2 0
52.5083629356802 0.2 0
54.31354780404553 0.2 0
56.11843930587909 0.2 0
57.92309304631959 0.2 0
59.72755394473411 0.2 0
61.53185823625592 0.2 0
63.33603530080922 0.2 0
65.14010891855033 0.2 0
66.94409842911024 0.2 0
68.74801951117441 0.2 0
70.55188493140825 0.2 0
72.35570503139958 0.2 0
74.15948825998434 0.2 0
75.96324166374224 0.2 0
77.76697087789468 0.2 0
79.57068036797445 0.2 0
81.37437410715269 0.2 0
83.17805519299111 0.2 0
84.98172621093731 0.2 0
86.78538938176041 0.2 0
88.58904681486462 0.2 0
90.39270005858866 0.2 0
92.19635067280149 0.2 0
94 0.2533333333332341 0
94 0.3066666666664725 0
94 0.3599999999996274 0
94 0.413333333332804 0
94 0.4666666666659806 0
94 0.5199999999991571 0
94 0.5733333333323336 0
94 0.6266666666656895 0
94 0.6799999999991551 0
94 0.7333333333326146 0
94 0.7866666666660802 0
94 0.8399999999995775 0
94 0.8933333333330373 0
94 0.9466666666664969 0
92.20406018404162 1 0
90.40812188755289 1 0
88.61218651699434 1 0
86.81625566997511 1 0
85.02033105636393 1 0
83.22441465533019 1 0
81.4285089826728 1 0
79.63261648717963 1 0
77.83674112442262 1 0
76.04088645167451 1 0
74.24505751560321 1 0
72.44926072784524 1 0
70.65350284549304 1 0
68.85779363458725 1 0
67.06214324218658 1 0
65.26656639685778 1 0
63.47107831679052 1 0
61.67570186432437 1 0
59.8804584801038 1 0
58.08538352542635 1 0
56.29051045885853 1 0
54.49589097493168 1 0
52.70158188308318 1 0
50.90765315460629 1 0
49.1141934195352 1 0
47.32131219833079 1 0
45.52914273332928 1 0
43.73785206749794 1 0
41.94765011541171 1 0
40.1587778484673 1 0
38.37154119633134 1 0
36.58635311509934 1 0
34.80363430496997 1 0
33.0240131583035 1 0
31.24818695855729 1 0
29.47702694005966 1 0
27.7116031801041 1 0
25.95319173926895 1 0
24.20337574796234 1 0
22.46400656951135 1 0
20.73730857266659 1 0
19.02594154199457 1 0
17.33252859232474 1 0
15.65969207259388 1 0
14.01001677824223 1 0
12.38714843723827 1 0
10.79587581400108 1 0
9.246370343750181 1 0
7.756195345407878 1 0
6.352936467862727 1 0
5.054680525625415 1 0
3.887596185729189 1 0
2.863284418490851 1 0
2.045265004135804 1 0
1.392417844608612 1 0
0.8960158870310282 1 0
0.5275775121635339 1 0
0.2382871683835591 1 0
0 0.9473684210524125 0
0 0.8947368421048248 0
0 0.8421052631576025 0
0 0.7894736842105994 0
0 0.7368421052635962 0
0 0.6842105263165927 0
0 0.6315789473695894 0
0 0.5789473684225861 0
0 0.5263157894755828 0
0 0.4736842105282874 0
0 0.4210526315806998 0
0 0.3684210526331123 0
0 0.3157894736855248 0
0 0.2631578947379374 0
0 0.21052631579035 0
0 0.1578947368427625 0
0 0.1052631578951749 0
0 0.05263157894758741 0
5.813198009297583 0.955462795473483 0
6.997286241239252 0.2394317949808221 0
16.52163703266638 0.9557759867023439 0
78.83235610681416 0.9559758769411787 0
71.55136127537735 0.9559648099769389 0
64.36877606415771 0.9559648099769389 0
57.18784277695181 0.9559648099772646 0
50.10307716186202 0.9560078743553572 0
42.93263329656084 0.9561420672712786 0
35.69380001507076 0.95627738856474 0
28.59173787260458 0.9563034567995272 0
0.1094795008770607 0.5498854761242812 0
22.45865299228563 0.2442383967812095 0
75.11651848547643 0.2421522008426663 0
67.84601130043637 0.243586373321511 0
60.6297764295817 0.24363095694403 0
53.41119458685031 0.2436741865527954 0
46.18709887605969 0.2437170671454607 0
38.94997870415295 0.2437587738062726 0
31.68062370116492 0.2442249255777628 0
3.494524038606355 0.2417757800606361 0
6.703347858691588 0.2785115072887754 0
92.28774640217395 0.5995349944823752 0
4.146614542364969 0.2791940688436214 0
6.454292245631751 0.3180386921514113 0
4.359245978791388 0.3181181454258206 0
6.183884635229925 0.3577335228902347 0
82.39709944957526 0.2416532643303031 0
4.365191088178285 0.3576683284772433 0
5.893858892990295 0.3976917483469583 0
7.663197083261706 0.3977458985417416 0
7.22587491122917 0.4382323507424581 0
8.944651350224763 0.4382172989803606 0
8.428862886227058 0.4790536480492864 0
10.0977204414827 0.4792447281197085 0
6.869028250488367 0.4817209888486334 0
2.405323640069974 0.9660670791366374 0
21.59888966697806 0.9559852449915113 0
9.524812616892229 0.5203953730037822 0
11.16723533135449 0.5205851219036783 0
84.25573691200627 0.9563165682871465 0
0.04147930647791723 0.2894490564426765 0
10.5389717283926 0.5622881188475496 0
12.1730174419738 0.5621981517123112 0
0.1458490484215282 0.7091098825652095 0
0.2574003792604624 0.04723774929726795 0
12.831014409622 0.5200372393771872 0
13.82260191235395 0.562505099575485 0
11.51581647620469 0.6041261864689124 0
9.912335961528587 0.6041581669226386 0
92.38699029446319 0.4393531299125908 0
14.53350726704231 0.5199435586712576 0
15.50951428566231 0.5624873891767795 0
2.713758547326492 0.3174350849704655 0
2.892938723057619 0.3576870257641042 0
16.25132857970828 0.5195844107098163 0
17.22240666261515 0.5621174250913318 0
10.8544414922386 0.6460588488486728 0
9.290790616154606 0.6462390077748084 0
16.43212950100725 0.6067218912904607 0
18.17236304254649 0.6047738158182728 0
18.95278642748444 0.5617915498272615 0
19.898532606154 0.6045430073239006 0
20.70063300500398 0.5614360364847856 0
21.63960881526418 0.6046345614192383 0
22.45446233840461 0.5613114208485291 0
23.39215576641086 0.604758732930365 0
24.20081936802044 0.5597386087889248 0
25.15659030363341 0.6042836632406788 0
26.00814172403802 0.5607219500906248 0
26.93434508740181 0.6043040651294929 0
27.79126771095494 0.5598592244124957 0
28.71427143889559 0.6040638744783449 0
29.57833942372227 0.5595216793632644 0
30.49821674779403 0.6038781229769293 0
31.36791060791411 0.5600604284234054 0
32.28509968457045 0.6038664424080111 0
33.14265553734987 0.55874807111347 0
34.07276906293158 0.6035341865995129 0
34.94246364546108 0.5586520846649797 0
35.86599261189658 0.6034054551655909 0
36.74731781714235 0.558835304845746 0
37.66096893676527 0.6032503772964327 0
38.54541691148342 0.5587079795953892 0
39.45663276440279 0.6030926920218221 0
40.3427727087822 0.5580480170404921 0
41.25291874742793 0.6028436706904448 0
42.14059961281975 0.5577680566445021 0
43.04987495693689 0.6026435181305781 0
43.9388461141189 0.5575726351194972 0
44.84745766778717 0.6024617369905624 0
45.7374695106 0.5573842056888257 0
46.64566792216986 0.6022873884346892 0
47.53640089223568 0.5572075399874397 0
48.44416446977571 0.6021111834258887 0
49.33555607829815 0.5570246051384745 0
50.24290697603659 0.6019307913070558 0
51.13487420724349 0.5568475628142857 0
52.04192656478717 0.6017522495250318 0
52.93433954845349 0.5566653603575672 0
53.84122581578252 0.601574020443024 0
54.73392922185688 0.5564884669211013 0
55.64061964304299 0.601395113412113 0
56.53360171379089 0.5563067813822595 0
57.43995532179323 0.6012129143420911 0
58.33331455571443 0.5561292537946573 0
59.23953105364789 0.601032757987411 0
60.13310431522126 0.5559477304122714 0
61.03939584510552 0.600855564813206 0
61.93297500939649 0.5557710179709322 0
62.83918318306118 0.6006760179252703 0
63.73286300690913 0.5555900146741853 0
64.63892546366199 0.6004921726308964 0
65.53275941460076 0.5554125217101814 0
66.4387583355587 0.6003111949874665 0
67.3326830710413 0.5552312296013228 0
68.23852197712283 0.6001298880828497 0
69.13261769940118 0.5550546947866846 0
70.03844280675604 0.599950595338254 0
70.93266134535862 0.5548708301001631 0
71.83861880910398 0.5997713467128002 0
72.73305563998294 0.5547000681173012 0
73.63922074496648 0.5996004731097838 0
74.5340481682921 0.5545095609010697 0
75.4402746347116 0.5994220729206983 0
76.33607430782345 0.5543494429014709 0
77.24191800611543 0.5993228147833797 0
78.13994990037541 0.5541346321759457 0
79.04818974762593 0.5992395038842441 0
79.94870101428862 0.5540180644105763 0
92.54990288630731 0.7598964409357507 0
80.86116853311171 0.5990918128353608 0
1.700099703087369 0.3159793431387367 0
1.899855782251879 0.357715436029677 0
1.084363155107689 0.3157219358498637 0
1.236306811848981 0.3576135465858128 0
74.53994151535997 0.643990885448769 0
67.34440453028542 0.6444881680698032 0
24.3115803660108 0.6487487015028032 0
60.14573401744451 0.6452136474256573 0
52.9485621170427 0.6459229900926835 0
0.6998583901157968 0.3150377509381005 0
0.80781058709881 0.3574251905568473 0
1.319952368083818 0.4002519798591844 0
45.75523667182975 0.6466170330762969 0
31.41583954657111 0.6479317947648683 0
38.57300459550684 0.6473399689389928 0
19.11294941186085 0.6483605753517908 0
10.20413965982975 0.6883083412871458 0
8.675197617979128 0.6885103796531055 0
81.76281545683082 0.5527758280498023 0
26.83273261569417 0.5148848291986879 0
79.95747204777879 0.6438096025956825 0
81.77381490578065 0.6437140715169269 0
35.81566148952535 0.5138574114565649 0
43.01624298577342 0.5115839513085039 0
50.21681195962834 0.5109012431757174 0
57.41816310248676 0.510388685431229 0
0.8683775357201227 0.4001745965167012 0
1.343440875753296 0.4433206937839571 0
64.61984306847965 0.5096846626216972 0
[...]
    <PointData>
      <DataArray type="Float64" NumberOfComponents="3" Name="Velocity" format="ascii">
-nan -nan 0
-nan -nan 0
-nan -nan 0
-nan -nan 0
-nan -nan 0
-nan -nan 0
-nan -nan 0
-nan -nan 0
-nan -nan 0
-nan -nan 0
-nan -nan 0
-nan -nan 0
-nan -nan 0
-nan -nan 0
-nan -nan 0
-nan -nan 0
-nan -nan 0
-nan -nan 0
-nan -nan 0
-nan -nan 0
-nan -nan 0
-nan -nan 0
-nan -nan 0
-nan -nan 0
-nan -nan 0
-nan -nan 0
-nan -nan 0
-nan -nan 0
-nan -nan 0
-nan -nan 0
-nan -nan 0
-nan -nan 0
-nan -nan 0
-nan -nan 0
-nan -nan 0
-nan -nan 0
-nan -nan 0
-nan -nan 0
-nan -nan 0
-nan -nan 0
-nan -nan 0
-nan -nan 0
-nan -nan 0
-nan -nan 0
-nan -nan 0
-nan -nan 0
-nan -nan 0
-nan -nan 0
-nan -nan 0
-nan -nan 0
-nan -nan 0
-nan -nan 0
-nan -nan 0
-nan -nan 0
-nan -nan 0
-nan -nan 0
-nan -nan 0
-nan -nan 0
-nan -nan 0
-nan -nan 0
-nan -nan 0
-nan -nan 0
-nan -nan 0
-nan -nan 0
-nan -nan 0
-nan -nan 0
-nan -nan 0
-nan -nan 0
-nan -nan 0
-nan -nan 0
-nan -nan 0
-nan -nan 0
-nan -nan 0
-nan -nan 0
-nan -nan 0
-nan -nan 0
-nan -nan 0
-nan -nan 0
-nan -nan 0
-nan -nan 0
-nan -nan 0
-nan -nan 0
-nan -nan 0
-nan -nan 0
-nan -nan 0
-nan -nan 0
-nan -nan 0
-nan -nan 0
-nan -nan 0
-nan -nan 0
-nan -nan 0
-nan -nan 0
-nan -nan 0
-nan -nan 0
-nan -nan 0
-nan -nan 0
-nan -nan 0
-nan -nan 0
-nan -nan 0
-nan -nan 0
-nan -nan 0
-nan -nan 0
-nan -nan 0
-nan -nan 0
-nan -nan 0
-nan -nan 0
-nan -nan 0
-nan -nan 0
-nan -nan 0
-nan -nan 0
-nan -nan 0
-nan -nan 0
-nan -nan 0
-nan -nan 0
-nan -nan 0
-nan -nan 0
-nan -nan 0
-nan -nan 0
-nan -nan 0
-nan -nan 0
-nan -nan 0
-nan -nan 0
-nan -nan 0
-nan -nan 0
-nan -nan 0
-nan -nan 0
-nan -nan 0
-nan -nan 0
-nan -nan 0
-nan -nan 0
-nan -nan 0
-nan -nan 0
-nan -nan 0
-nan -nan 0
-nan -nan 0
-nan -nan 0
-nan -nan 0
-nan -nan 0
-nan -nan 0
-nan -nan 0
-nan -nan 0
-nan -nan 0
-nan -nan 0
-nan -nan 0
-nan -nan 0
-nan -nan 0
-nan -nan 0
-nan -nan 0
-nan -nan 0
-nan -nan 0
-nan -nan 0
-nan -nan 0
-nan -nan 0
-nan -nan 0
-nan -nan 0
-nan -nan 0
-nan -nan 0
-nan -nan 0
-nan -nan 0
-nan -nan 0
-nan -nan 0
-nan -nan 0
-nan -nan 0
-nan -nan 0
-nan -nan 0
-nan -nan 0
-nan -nan 0
-nan -nan 0
-nan -nan 0
-nan -nan 0
-nan -nan 0
-nan -nan 0
-nan -nan 0
-nan -nan 0
-nan -nan 0
-nan -nan 0
-nan -nan 0
-nan -nan 0
-nan -nan 0
-nan -nan 0
-nan -nan 0
-nan -nan 0
-nan -nan 0
-nan -nan 0
-nan -nan 0
-nan -nan 0
-nan -nan 0
-nan -nan 0
-nan -nan 0
-nan -nan 0
-nan -nan 0
-nan -nan 0
-nan -nan 0
-nan -nan 0
-nan -nan 0
-nan -nan 0
-nan -nan 0
-nan -nan 0
-nan -nan 0
-nan -nan 0
-nan -nan 0
-nan -nan 0
-nan -nan 0
-nan -nan 0
-nan -nan 0
-nan -nan 0
-nan -nan 0
-nan -nan 0
-nan -nan 0
-nan -nan 0
-nan -nan 0
-nan -nan 0
-nan -nan 0
-nan -nan 0
-nan -nan 0
-nan -nan 0
-nan -nan 0
-nan -nan 0
-nan -nan 0
-nan -nan 0
-nan -nan 0
-nan -nan 0
-nan -nan 0
-nan -nan 0
-nan -nan 0
-nan -nan 0
-nan -nan 0
-nan -nan 0
-nan -nan 0
-nan -nan 0
-nan -nan 0
-nan -nan 0
-nan -nan 0
-nan -nan 0
-nan -nan 0
-nan -nan 0
-nan -nan 0
-nan -nan 0
-nan -nan 0
-nan -nan 0
-nan -nan 0
-nan -nan 0
-nan -nan 0
-nan -nan 0
-nan -nan 0
-nan -nan 0
-nan -nan 0
-nan -nan 0
-nan -nan 0
-nan -nan 0
-nan -nan 0
-nan -nan 0
-nan -nan 0
-nan -nan 0
-nan -nan 0
-nan -nan 0
-nan -nan 0
-nan -nan 0
-nan -nan 0
-nan -nan 0
-nan -nan 0
-nan -nan 0
-nan -nan 0
-nan -nan 0
-nan -nan 0
-nan -nan 0
-nan -nan 0
-nan -nan 0
-nan -nan 0
-nan -nan 0
-nan -nan 0
-nan -nan 0
-nan -nan 0
-nan -nan 0
-nan -nan 0
-nan -nan 0
-nan -nan 0
-nan -nan 0
-nan -nan 0
-nan -nan 0
-nan -nan 0
-nan -nan 0
-nan -nan 0
-nan -nan 0
-nan -nan 0
-nan -nan 0
-nan -nan 0
-nan -nan 0
-nan -nan 0
-nan -nan 0
-nan -nan 0
-nan -nan 0
-nan -nan 0
-nan -nan 0
-nan -nan 0
-nan -nan 0
-nan -nan 0
-nan -nan 0
-nan -nan 0
-nan -nan 0
-nan -nan 0
-nan -nan 0
-nan -nan 0
-nan -nan 0
-nan -nan 0
-nan -nan 0
-nan -nan 0
-nan -nan 0
-nan -nan 0
-nan -nan 0
-nan -nan 0
-nan -nan 0
-nan -nan 0
-nan -nan 0
-nan -nan 0
-nan -nan 0
-nan -nan 0
-nan -nan 0
-nan -nan 0
-nan -nan 0
-nan -nan 0
-nan -nan 0
-nan -nan 0
-nan -nan 0
-nan -nan 0
-nan -nan 0
-nan -nan 0
-nan -nan 0
-nan -nan 0
-nan -nan 0
-nan -nan 0
-nan -nan 0
-nan -nan 0
-nan -nan 0
-nan -nan 0
-nan -nan 0
-nan -nan 0
-nan -nan 0
-nan -nan 0
-nan -nan 0
-nan -nan 0
-nan -nan 0
-nan -nan 0
-nan -nan 0
-nan -nan 0
-nan -nan 0
-nan -nan 0
-nan -nan 0
-nan -nan 0
-nan -nan 0
-nan -nan 0
-nan -nan 0
-nan -nan 0
-nan -nan 0
-nan -nan 0
-nan -nan 0
-nan -nan 0
-nan -nan 0
-nan -nan 0
-nan -nan 0
-nan -nan 0
-nan -nan 0
-nan -nan 0
-nan -nan 0
-nan -nan 0
-nan -nan 0
-nan -nan 0
-nan -nan 0
-nan -nan 0
-nan -nan 0
-nan -nan 0
-nan -nan 0
-nan -nan 0
-nan -nan 0
-nan -nan 0
-nan -nan 0
-nan -nan 0
-nan -nan 0
-nan -nan 0
-nan -nan 0
-nan -nan 0
-nan -nan 0
-nan -nan 0
-nan -nan 0
-nan -nan 0
-nan -nan 0
-nan -nan 0
-nan -nan 0
-nan -nan 0
-nan -nan 0
-nan -nan 0
-nan -nan 0
-nan -nan 0
-nan -nan 0
-nan -nan 0
-nan -nan 0
-nan -nan 0
-nan -nan 0
-nan -nan 0
-nan -nan 0
-nan -nan 0
-nan -nan 0
-nan -nan 0
-nan -nan 0
-nan -nan 0
-nan -nan 0
-nan -nan 0
-nan -nan 0
-nan -nan 0
-nan -nan 0
-nan -nan 0
-nan -nan 0
-nan -nan 0
-nan -nan 0
-nan -nan 0
-nan -nan 0
-nan -nan 0
-nan -nan 0
-nan -nan 0
-nan -nan 0
-nan -nan 0
-nan -nan 0
-nan -nan 0
-nan -nan 0
-nan -nan 0
-nan -nan 0
-nan -nan 0
-nan -nan 0
-nan -nan 0
-nan -nan 0
-nan -nan 0
-nan -nan 0
-nan -nan 0
-nan -nan 0
-nan -nan 0
-nan -nan 0
-nan -nan 0
-nan -nan 0
-nan -nan 0
-nan -nan 0
-nan -nan 0
-nan -nan 0
-nan -nan 0
-nan -nan 0
-nan -nan 0
-nan -nan 0
-nan -nan 0
-nan -nan 0
-nan -nan 0
-nan -nan 0
-nan -nan 0
-nan -nan 0
-nan -nan 0
-nan -nan 0
-nan -nan 0
-nan -nan 0
-nan -nan 0
-nan -nan 0
-nan -nan 0
-nan -nan 0
-nan -nan 0
-nan -nan 0
-nan -nan 0
-nan -nan 0
-nan -nan 0
-nan -nan 0
-nan -nan 0
-nan -nan 0
-nan -nan 0
-nan -nan 0
-nan -nan 0
-nan -nan 0
-nan -nan 0
-nan -nan 0
-nan -nan 0
-nan -nan 0
-nan -nan 0
-nan -nan 0
-nan -nan 0
-nan -nan 0
-nan -nan 0
-nan -nan 0
-nan -nan 0
-nan -nan 0
-nan -nan 0
-nan -nan 0
-nan -nan 0
-nan -nan 0
-nan -nan 0
-nan -nan 0
-nan -nan 0
-nan -nan 0
-nan -nan 0
-nan -nan 0
-nan -nan 0
-nan -nan 0
-nan -nan 0
-nan -nan 0
-nan -nan 0
-nan -nan 0
-nan -nan 0
-nan -nan 0
-nan -nan 0
-nan -nan 0
-nan -nan 0
-nan -nan 0
-nan -nan 0
-nan -nan 0
-nan -nan 0
-nan -nan 0
-nan -nan 0
-nan -nan 0
-nan -nan 0
-nan -nan 0
-nan -nan 0
-nan -nan 0
-nan -nan 0
-nan -nan 0
-nan -nan 0
-nan -nan 0
-nan -nan 0
-nan -nan 0
-nan -nan 0
-nan -nan 0
-nan -nan 0
-nan -nan 0
-nan -nan 0
-nan -nan 0
-nan -nan 0
-nan -nan 0
-nan -nan 0
-nan -nan 0
-nan -nan 0
-nan -nan 0
-nan -nan 0
-nan -nan 0
-nan -nan 0
-nan -nan 0
-nan -nan 0
-nan -nan 0
-nan -nan 0
-nan -nan 0
-nan -nan 0
-nan -nan 0
-nan -nan 0
-nan -nan 0
-nan -nan 0
-nan -nan 0
-nan -nan 0
-nan -nan 0
-nan -nan 0
-nan -nan 0
-nan -nan 0
-nan -nan 0
-nan -nan 0
-nan -nan 0
-nan -nan 0
-nan -nan 0
-nan -nan 0
-nan -nan 0
-nan -nan 0
-nan -nan 0
-nan -nan 0
-nan -nan 0
-nan -nan 0
-nan -nan 0
-nan -nan 0
-nan -nan 0
-nan -nan 0
-nan -nan 0
-nan -nan 0
-nan -nan 0
-nan -nan 0
-nan -nan 0
-nan -nan 0
-nan -nan 0
-nan -nan 0
-nan -nan 0
-nan -nan 0
-nan -nan 0
-nan -nan 0
-nan -nan 0
-nan -nan 0
-nan -nan 0
-nan -nan 0
-nan -nan 0
-nan -nan 0
-nan -nan 0
-nan -nan 0
-nan -nan 0
-nan -nan 0
-nan -nan 0
-nan -nan 0
-nan -nan 0
-nan -nan 0
-nan -nan 0
-nan -nan 0
-nan -nan 0
-nan -nan 0
-nan -nan 0
-nan -nan 0
-nan -nan 0
-nan -nan 0
-nan -nan 0
-nan -nan 0
-nan -nan 0
-nan -nan 0
-nan -nan 0
-nan -nan 0
-nan -nan 0
-nan -nan 0
-nan -nan 0
-nan -nan 0
-nan -nan 0
-nan -nan 0
-nan -nan 0
-nan -nan 0
-nan -nan 0
-nan -nan 0
-nan -nan 0
-nan -nan 0
-nan -nan 0
-nan -nan 0
-nan -nan 0
-nan -nan 0
-nan -nan 0
-nan -nan 0
-nan -nan 0
-nan -nan 0
-nan -nan 0
-nan -nan 0
-nan -nan 0
-nan -nan 0
-nan -nan 0
-nan -nan 0
-nan -nan 0
-nan -nan 0
-nan -nan 0
-nan -nan 0
-nan -nan 0
-nan -nan 0
-nan -nan 0
-nan -nan 0
-nan -nan 0
-nan -nan 0
-nan -nan 0
-nan -nan 0
-nan -nan 0
-nan -nan 0
-nan -nan 0
-nan -nan 0
-nan -nan 0
-nan -nan 0
-nan -nan 0
-nan -nan 0
-nan -nan 0
-nan -nan 0
-nan -nan 0
-nan -nan 0
-nan -nan 0
-nan -nan 0
-nan -nan 0
-nan -nan 0
-nan -nan 0
-nan -nan 0
-nan -nan 0
-nan -nan 0
-nan -nan 0
-nan -nan 0
-nan -nan 0
-nan -nan 0
-nan -nan 0
-nan -nan 0
-nan -nan 0
-nan -nan 0
-nan -nan 0
-nan -nan 0
-nan -nan 0
-nan -nan 0
-nan -nan 0
-nan -nan 0
-nan -nan 0
-nan -nan 0
-nan -nan 0
-nan -nan 0
-nan -nan 0
-nan -nan 0
-nan -nan 0
-nan -nan 0
-nan -nan 0
-nan -nan 0
-nan -nan 0
-nan -nan 0
-nan -nan 0
-nan -nan 0
-nan -nan 0
-nan -nan 0
-nan -nan 0
-nan -nan 0
-nan -nan 0
-nan -nan 0
-nan -nan 0
-nan -nan 0
-nan -nan 0
-nan -nan 0
-nan -nan 0
-nan -nan 0
-nan -nan 0
-nan -nan 0
-nan -nan 0
-nan -nan 0
-nan -nan 0
-nan -nan 0
-nan -nan 0
-nan -nan 0
-nan -nan 0
-nan -nan 0
-nan -nan 0
-nan -nan 0
-nan -nan 0
-nan -nan 0
-nan -nan 0
-nan -nan 0
-nan -nan 0
-nan -nan 0
-nan -nan 0
-nan -nan 0
-nan -nan 0
-nan -nan 0
-nan -nan 0
-nan -nan 0
-nan -nan 0
-nan -nan 0
-nan -nan 0
-nan -nan 0
-nan -nan 0
-nan -nan 0
-nan -nan 0
-nan -nan 0
-nan -nan 0
-nan -nan 0
-nan -nan 0
-nan -nan 0
-nan -nan 0
-nan -nan 0
-nan -nan 0
-nan -nan 0
-nan -nan 0
-nan -nan 0
-nan -nan 0
-nan -nan 0
-nan -nan 0
-nan -nan 0
-nan -nan 0
-nan -nan 0
-nan -nan 0
-nan -nan 0
-nan -nan 0
-nan -nan 0
-nan -nan 0
-nan -nan 0
-nan -nan 0
-nan -nan 0
-nan -nan 0
-nan -nan 0
-nan -nan 0
-nan -nan 0
-nan -nan 0
-nan -nan 0
-nan -nan 0
-nan -nan 0
-nan -nan 0
-nan -nan 0
-nan -nan 0
-nan -nan 0
-nan -nan 0
-nan -nan 0
-nan -nan 0
-nan -nan 0
-nan -nan 0
-nan -nan 0
-nan -nan 0
-nan -nan 0
-nan -nan 0
-nan -nan 0
-nan -nan 0
-nan -nan 0
-nan -nan 0
-nan -nan 0
-nan -nan 0
-nan -nan 0
-nan -nan 0
-nan -nan 0
-nan -nan 0
-nan -nan 0
-nan -nan 0
-nan -nan 0
-nan -nan 0
-nan -nan 0
-nan -nan 0
-nan -nan 0
-nan -nan 0
-nan -nan 0
-nan -nan 0
-nan -nan 0
-nan -nan 0
-nan -nan 0
-nan -nan 0
-nan -nan 0
-nan -nan 0
-nan -nan 0
-nan -nan 0
-nan -nan 0
-nan -nan 0
-nan -nan 0
-nan -nan 0
-nan -nan 0
-nan -nan 0
-nan -nan 0
-nan -nan 0
-nan -nan 0
-nan -nan 0
-nan -nan 0
-nan -nan 0
-nan -nan 0
-nan -nan 0
-nan -nan 0
-nan -nan 0
-nan -nan 0
-nan -nan 0
-nan -nan 0
-nan -nan 0
-nan -nan 0
-nan -nan 0
-nan -nan 0
-nan -nan 0
-nan -nan 0
-nan -nan 0
-nan -nan 0
-nan -nan 0
-nan -nan 0
-nan -nan 0
-nan -nan 0
-nan -nan 0
-nan -nan 0
-nan -nan 0
-nan -nan 0
-nan -nan 0
-nan -nan 0
-nan -nan 0
-nan -nan 0
-nan -nan 0
-nan -nan 0
-nan -nan 0
-nan -nan 0
-nan -nan 0
-nan -nan 0
-nan -nan 0
-nan -nan 0
-nan -nan 0
-nan -nan 0
-nan -nan 0
-nan -nan 0
-nan -nan 0
-nan -nan 0
-nan -nan 0
-nan -nan 0
-nan -nan 0
-nan -nan 0
-nan -nan 0
-nan -nan 0
-nan -nan 0
-nan -nan 0
-nan -nan 0
-nan -nan 0
-nan -nan 0
-nan -nan 0
-nan -nan 0
-nan -nan 0
-nan -nan 0
-nan -nan 0
-nan -nan 0
-nan -nan 0
-nan -nan 0
-nan -nan 0
-nan -nan 0
-nan -nan 0
-nan -nan 0
-nan -nan 0
-nan -nan 0
-nan -nan 0
-nan -nan 0
-nan -nan 0
-nan -nan 0
-nan -nan 0
-nan -nan 0
-nan -nan 0
-nan -nan 0
-nan -nan 0
-nan -nan 0
-nan -nan 0
-nan -nan 0
-nan -nan 0
-nan -nan 0
-nan -nan 0
-nan -nan 0
-nan -nan 0
-nan -nan 0
-nan -nan 0
-nan -nan 0
-nan -nan 0
-nan -nan 0
-nan -nan 0
-nan -nan 0
-nan -nan 0
-nan -nan 0
-nan -nan 0
-nan -nan 0
-nan -nan 0
-nan -nan 0
-nan -nan 0
-nan -nan 0
-nan -nan 0
-nan -nan 0
-nan -nan 0
-nan -nan 0
-nan -nan 0
-nan -nan 0
-nan -nan 0
-nan -nan 0
-nan -nan 0
-nan -nan 0
-nan -nan 0
-nan -nan 0
-nan -nan 0
-nan -nan 0
-nan -nan 0
-nan -nan 0
-nan -nan 0
-nan -nan 0
-nan -nan 0
-nan -nan 0
-nan -nan 0
-nan -nan 0
-nan -nan 0
-nan -nan 0
-nan -nan 0
-nan -nan 0
-nan -nan 0
-nan -nan 0
-nan -nan 0
-nan -nan 0
-nan -nan 0
-nan -nan 0
-nan -nan 0
-nan -nan 0
-nan -nan 0
-nan -nan 0
-nan -nan 0
-nan -nan 0
-nan -nan 0
-nan -nan 0
-nan -nan 0
-nan -nan 0
-nan -nan 0
-nan -nan 0
-nan -nan 0
-nan -nan 0
-nan -nan 0
-nan -nan 0
-nan -nan 0
-nan -nan 0
-nan -nan 0
-nan -nan 0
-nan -nan 0
-nan -nan 0
-nan -nan 0
-nan -nan 0
-nan -nan 0
-nan -nan 0
-nan -nan 0
-nan -nan 0
-nan -nan 0
-nan -nan 0
-nan -nan 0
-nan -nan 0
-nan -nan 0
-nan -nan 0
-nan -nan 0
-nan -nan 0
-nan -nan 0
-nan -nan 0
-nan -nan 0
-nan -nan 0
-nan -nan 0
-nan -nan 0
-nan -nan 0
-nan -nan 0
-nan -nan 0
-nan -nan 0
-nan -nan 0
-nan -nan 0
-nan -nan 0
-nan -nan 0
-nan -nan 0
-nan -nan 0
-nan -nan 0
-nan -nan 0
-nan -nan 0
-nan -nan 0
-nan -nan 0
-nan -nan 0
-nan -nan 0
-nan -nan 0
-nan -nan 0
-nan -nan 0
-nan -nan 0
-nan -nan 0
-nan -nan 0
-nan -nan 0
-nan -nan 0
-nan -nan 0
-nan -nan 0
-nan -nan 0
-nan -nan 0
-nan -nan 0
-nan -nan 0
-nan -nan 0
-nan -nan 0
-nan -nan 0
-nan -nan 0
-nan -nan 0
-nan -nan 0
-nan -nan 0
-nan -nan 0
-nan -nan 0
-nan -nan 0
-nan -nan 0
-nan -nan 0
-nan -nan 0
-nan -nan 0
-nan -nan 0
-nan -nan 0
-nan -nan 0
-nan -nan 0
-nan -nan 0
-nan -nan 0
-nan -nan 0
-nan -nan 0
-nan -nan 0
-nan -nan 0
-nan -nan 0
-nan -nan 0
-nan -nan 0
-nan -nan 0
-nan -nan 0
-nan -nan 0
-nan -nan 0
-nan -nan 0
-nan -nan 0
-nan -nan 0
-nan -nan 0
-nan -nan 0
-nan -nan 0
-nan -nan 0
-nan -nan 0
-nan -nan 0
-nan -nan 0
-nan -nan 0
-nan -nan 0
-nan -nan 0
-nan -nan 0
-nan -nan 0
-nan -nan 0
-nan -nan 0
-nan -nan 0
-nan -nan 0
-nan -nan 0
-nan -nan 0
-nan -nan 0
-nan -nan 0
-nan -nan 0
-nan -nan 0
-nan -nan 0
-nan -nan 0
-nan -nan 0
-nan -nan 0
-nan -nan 0
-nan -nan 0
-nan -nan 0
-nan -nan 0
-nan -nan 0
-nan -nan 0
-nan -nan 0
-nan -nan 0
-nan -nan 0
-nan -nan 0
-nan -nan 0
-nan -nan 0
-nan -nan 0
-nan -nan 0
-nan -nan 0
-nan -nan 0
-nan -nan 0
-nan -nan 0
-nan -nan 0
-nan -nan 0
-nan -nan 0
-nan -nan 0
-nan -nan 0
-nan -nan 0
-nan -nan 0
-nan -nan 0
-nan -nan 0
-nan -nan 0
-nan -nan 0
-nan -nan 0
-nan -nan 0
-nan -nan 0
-nan -nan 0
-nan -nan 0
-nan -nan 0
-nan -nan 0
-nan -nan 0
-nan -nan 0
-nan -nan 0
-nan -nan 0
-nan -nan 0
-nan -nan 0
-nan -nan 0
-nan -nan 0
-nan -nan 0
-nan -nan 0
-nan -nan 0
-nan -nan 0
-nan -nan 0
-nan -nan 0
-nan -nan 0
-nan -nan 0
-nan -nan 0
-nan -nan 0
-nan -nan 0
-nan -nan 0
-nan -nan 0
-nan -nan 0
-nan -nan 0
-nan -nan 0
-nan -nan 0
-nan -nan 0
-nan -nan 0
-nan -nan 0
-nan -nan 0
-nan -nan 0
-nan -nan 0
-nan -nan 0
-nan -nan 0
-nan -nan 0
-nan -nan 0
-nan -nan 0
-nan -nan 0
-nan -nan 0
-nan -nan 0
-nan -nan 0
-nan -nan 0
-nan -nan 0
-nan -nan 0
-nan -nan 0
-nan -nan 0
-nan -nan 0
-nan -nan 0
-nan -nan 0
-nan -nan 0
-nan -nan 0
-nan -nan 0
-nan -nan 0
-nan -nan 0
-nan -nan 0
-nan -nan 0
-nan -nan 0
-nan -nan 0
-nan -nan 0
-nan -nan 0
-nan -nan 0
-nan -nan 0
-nan -nan 0
-nan -nan 0
-nan -nan 0
-nan -nan 0
-nan -nan 0
-nan -nan 0
-nan -nan 0
-nan -nan 0
-nan -nan 0
-nan -nan 0
-nan -nan 0
-nan -nan 0
-nan -nan 0
-nan -nan 0
-nan -nan 0
-nan -nan 0
-nan -nan 0
-nan -nan 0
-nan -nan 0
-nan -nan 0
-nan -nan 0
-nan -nan 0
-nan -nan 0
-nan -nan 0
-nan -nan 0
-nan -nan 0
-nan -nan 0
-nan -nan 0
-nan -nan 0
-nan -nan 0
-nan -nan 0
-nan -nan 0
-nan -nan 0
-nan -nan 0
-nan -nan 0
-nan -nan 0
-nan -nan 0
-nan -nan 0
-nan -nan 0
-nan -nan 0
      </DataArray> 
      <DataArray type="Float64" NumberOfComponents="3" Name="MeshDisp" format="ascii">
0 0 0
0 0 0
0 0 0
1 0 0
1 0 0
0 0 0
0 0 0
0 0 0
0 0 0
0 0 0
0 0 0
0 0 0
0 0 0
0 0 0
0 0 0
0 0 0
0 0 0
0 0 0
0 0 0
0 0 0
0.08376045489521297 0 0
0.1105304162932478 0 0
0.1334475345191128 0 0
0.1551287265673333 0 0
0.1761146300787382 0 0
0.1967058946375977 0 0
0.2169911780331653 0 0
0.2370697288773082 0 0
0.2570046002796772 0 0
0.2768382812680465 0 0
0.2965975052767638 0 0
0.3163006517143916 0 0
0.3359626937653686 0 0
0.3555926973198866 0 0
0.3751978045906526 0 0
0.3947838873817596 0 0
0.4143550268853159 0 0
0.4339145017079782 0 0
0.4534647505198532 0 0
0.4730077376601001 0 0
0.492544942843873 0 0
0.5120775657940053 0 0
0.5316065088341714 0 0
0.5511325182398467 0 0
0.5706561622015649 0 0
0.5901779137934765 0 0
0.6096981336725873 0 0
0.6292171226818311 0 0
0.6487351101044603 0 0
0.6682522896384832 0 0
0.6877688113321688 0 0
0.7072848031761584 0 0
0.7268003639898499 0 0
0.7463155771438976 0 0
0.7658305072417027 0 0
0.7853452097003241 0 0
0.8048597228415197 0 0
0.8243740820977945 0 0
0.8438883186195116 0 0
0.8634024559187659 0 0
0.8829165128385026 0 0
0.9024305066415168 0 0
0.9219444522939694 0 0
0.9414583578976234 0 0
0.9609722410127629 0 0
0.9804861171512786 0 0
1 0 0
1 0 0
1 0 0
1 0 0
1 0 0
1 0 0
1 0 0
1 0 0
1 0 0
0.9999999999999999 0 0
1 0 0
0.9999999999999999 0 0
1 0 0
0.9999999999999999 0 0
0.9805695275386838 0 0
0.9611390925056085 0 0
0.9417087087257388 0 0
0.9222783954474698 0 0
0.9028481755040643 0 0
0.8834180783768918 0 0
0.8639881433235941 0 0
0.8445584028095433 0 0
0.8251289221407401 0 0
0.8056997506359335 0 0
0.7862709638614828 0 0
0.7668426627227628 0 0
0.7474149424855734 0 0
0.7279879572870936 0 0
0.7085618487216809 0 0
0.6891368485801929 0 0
0.6697131715792668 0 0
0.6502911733519638 0 0
0.6308711320541137 0 0
0.6114536226254761 0 0
0.5920390866652319 0 0
0.5726283357494376 0 0
0.5532221821554739 0 0
0.5338216428775764 0 0
0.514428004490067 0 0
0.4950428795251753 0 0
0.4756681705737949 0 0
0.4563063214293439 0 0
0.4369603744865965 0 0
0.4176337337528297 0 0
0.3983307803159811 0 0
0.3790573920501398 0 0
0.3598193023326508 0 0
0.3406259511952899 0 0
0.3214870876535549 0 0
0.3024150359022448 0 0
0.2834248006156216 0 0
0.2645335705664165 0 0
0.2457632410042269 0 0
0.2271394542424683 0 0
0.208694293318983 0 0
0.1904691328555108 0 0
0.1725032975956539 0 0
0.1548361901401677 0 0
0.1375071772915138 0 0
0.120563718977741 0 0
0.1040484815775784 0 0
0.08806707843757948 0 0
0.07278332186565471 0 0
0.05844813492758506 0 0
0.04521553107482523 0 0
0.03334238644742421 0 0
0.02296006814308293 0 0
0.01483387940510909 0 0
0.008619753537435871 0 0
0.004359612121200797 0 0
0.001856878168795658 0 0
0.000518103183448764 0 0
0 0 0
0 0 0
0 0 0
0 0 0
0 0 0
0 0 0
0 0 0
0 0 0
0 0 0
0 0 0
0 0 0
0 0 0
0 0 0
0 0 0
0 0 0
0 0 0
0 0 0
0 0 0
0.05294391416730677 0 0
0.06504208435318658 0 0
0.1639288078051016 0 0
0.8359004184462081 0 0
0.757128558722596 0 0
0.6794244590388167 0 0
0.6017451187113372 0 0
0.52512109125451 0 0
0.4476041123904381 0 0
0.369424139867127 0 0
0.2928894162349666 0 0
-0.0001655133814058922 0 0
0.2270844937396441 0 0
0.7956991472838558 0 0
0.7170420317214024 0 0
0.6389767964811301 0 0
0.5608967455031468 0 0
0.4827808047227219 0 0
0.4045772985629799 0 0
0.3261456297348608 0 0
0.02940529459371401 0 0
0.06204366110400585 0 0
0.9814749342768685 0 0
0.03604071161280192 0 0
0.05950338132099482 0 0
0.03820086568387141 0 0
0.05674655796791386 0 0
0.874467333543622 0 0
0.03825483859864629 0 0
0.05379075231117997 0 0
0.07183309690945808 0 0
0.067365877720284 0 0
0.08495182219803356 0 0
0.07966570744458863 0 0
0.09681775079963638 0 0
0.06372325556542725 0 0
0.01838501769763679 0 0
0.2178918288603163 0 0
0.09091984191524553 0 0
0.1078770997677569 0 0
0.8945759936288757 0 0
-0.0007708077687797973 0 0
0.1013802506800129 0 0
0.1183214631128731 0 0
0.000117253070200319 0 0
-0.0009317251221734612 0 0
0.1251733089664363 0 0
0.1355375170434755 0 0
0.11149661892496 0 0
0.0949155088667523 0 0
0.9825486659041976 0 0
0.1429875079489597 0 0
0.15324852185702 0 0
0.02138780954408655 0 0
0.02321751755928831 0 0
0.1610667396433007 0 0
0.1713320273836271 0 0
0.1046468577777689 0 0
0.08851892290397481 0 0
0.162978870265436 0 0
0.1813998060912455 0 0
0.1896869481239546 0 0
0.1997514795941327 0 0
0.2083017348583485 0 0
0.2183267531605596 0 0
0.2270378310383183 0 0
0.237072847273675 0 0
0.2457361977776027 0 0
0.2559850284624868 0 0
0.2651237836930902 0 0
0.2750711457713416 0 0
0.2842807248808629 0 0
0.2942072106197745 0 0
0.303505106873449 0 0
0.3134088718647334 0 0
0.3227766808075276 0 0
0.3326603756765009 0 0
0.3419050282767234 0 0
0.3519354712521378 0 0
0.3613172774992957 0 0
0.3712825220948269 0 0
0.3807947784167892 0 0
0.3906582397525677 0 0
0.4002083977404295 0 0
0.4100494484534502 0 0
0.4196212843878997 0 0
0.4294539598467637 0 0
0.4390452696132808 0 0
0.4488711339401376 0 0
0.4584786809220345 0 0
0.4682995078930691 0 0
0.4779201989345422 0 0
0.4877383096429644 0 0
0.4973683457210556 0 0
0.5071831834287511 0 0
0.5168216082209521 0 0
0.5266331522930299 0 0
0.536278838750323 0 0
0.5460881104044266 0 0
0.5557394681218218 0 0