<?xml version="1.0"?>
<VTKFile type="UnstructuredGrid">
  <UnstructuredGrid>
  <Piece NumberOfPoints="1224"  NumberOfCells="2290">
    <Points>
      <DataArray type="Float64" NumberOfComponents="3" format="ascii">
0 0 0
0.6 0 0
0.6 0.2 0
3 0.2 0
3 1 0
0 1 0
0.05454545454535233 0 0
0.1090909090906768 0 0
0.1636363636359771 0 0
0.2181818181812728 0 0
0.2727272727265793 0 0
0.3272727272720317 0 0
0.3818181818176247 0 0
0.4363636363632168 0 0
0.4909090909088285 0 0
0.5454545454544089 0 0
0.6 0.03999999999991203 0
0.6 0.07999999999979179 0
0.6 0.1199999999997886 0
0.6 0.1599999999998948 0
0.6510638297871261 0.2 0
0.7021276595742618 0.2 0
0.7531914893613819 0.2 0
0.8042553191485237 0.2 0
0.8553191489356438 0.2 0
0.9063829787228289 0.2 0
0.957446808509926 0.2 0
1.008510638297009 0.2 0
1.059574468084092 0.2 0
1.110638297871174 0.2 0
1.161702127658257 0.2 0
1.21276595744534 0.2 0
1.263829787232422 0.2 0
1.314893617019505 0.2 0
1.365957446806588 0.2 0
1.417021276593671 0.2 0
1.468085106380754 0.2 0
1.519148936167923 0.2 0
1.570212765955006 0.2 0
1.621276595742088 0.2 0
1.672340425529171 0.2 0
1.723404255316254 0.2 0
1.774468085103337 0.2 0
1.825531914890624 0.2 0
1.876595744677951 0.2 0
1.927659574465349 0.2 0
1.978723404252714 0.2 0
2.029787234040074 0.2 0
2.080851063827477 0.2 0
2.131914893614798 0.2 0
2.182978723402204 0.2 0
2.234042553189523 0.2 0
2.285106382976928 0.2 0
2.336170212764247 0.2 0
2.387234042551653 0.2 0
2.438297872338975 0.2 0
2.489361702126377 0.2 0
2.540425531913739 0.2 0
2.591489361701102 0.2 0
2.642553191488421 0.2 0
2.693617021275827 0.2 0
2.744680851063146 0.2 0
2.795744680850551 0.2 0
2.84680851063787 0.2 0
2.897872340425276 0.2 0
2.948936170212618 0.2 0
3 0.2533333333332341 0
3 0.3066666666664725 0
3 0.3599999999996274 0
3 0.413333333332804 0
3 0.4666666666659806 0
3 0.5199999999991571 0
3 0.5733333333323336 0
3 0.6266666666656895 0
3 0.6799999999991551 0
3 0.7333333333326146 0
3 0.7866666666660802 0
3 0.8399999999995775 0
3 0.8933333333330373 0
3 0.9466666666664969 0
2.949152542373491 1 0
2.898305084746983 1 0
2.847457627120474 1 0
2.796610169493702 1 0
2.745762711866469 1 0
2.694915254239208 1 0
2.644067796611963 1 0
2.593220338985156 1 0
2.542372881358647 1 0
2.491525423732018 1 0
2.44067796610481 1 0
2.389830508477549 1 0
2.338983050850287 1 0
2.288135593223026 1 0
2.237288135595765 1 0
2.186440677968504 1 0
2.135593220341243 1 0
2.084745762713982 1 0
2.033898305086721 1 0
1.983050847459614 1 0
1.932203389832729 1 0
1.881355932205844 1 0
1.830508474578958 1 0
1.779661016952073 1 0
1.728813559325189 1 0
1.677966101698303 1 0
1.627118644071418 1 0
1.576271186444533 1 0
1.525423728817648 1 0
1.474576271190575 1 0
1.423728813563314 1 0
1.372881355936053 1 0
1.322033898308791 1 0
1.27118644068153 1 0
1.220338983054269 1 0
1.169491525427008 1 0
1.118644067799747 1 0
1.067796610172485 1 0
1.016949152545224 1 0
0.9661016949179628 1 0
0.9152542372907018 1 0
0.8644067796634407 1 0
0.8135593220361792 1 0
0.7627118644089181 1 0
0.7118644067816566 1 0
0.661016949154396 1 0
0.6101694915271345 1 0
0.5593220338998739 1 0
0.5084745762726124 1 0
0.4576271186453518 1 0
0.4067796610180903 1 0
0.3559322033908292 1 0
0.3050847457635677 1 0
0.2542372881363066 1 0
0.2033898305090456 1 0
0.1525423728817841 1 0
0.101694915254523 1 0
0.05084745762726151 1 0
0 0.9473684210524125 0
0 0.8947368421048248 0
0 0.8421052631576025 0
0 0.7894736842105994 0
0 0.7368421052635962 0
0 0.6842105263165927 0
0 0.6315789473695894 0
0 0.5789473684225861 0
0 0.5263157894755828 0
0 0.4736842105282874 0
0 0.4210526315806998 0
0 0.3684210526331123 0
0 0.3157894736855248 0
0 0.2631578947379374 0
0 0.21052631579035 0
0 0.1578947368427625 0
0 0.1052631578951749 0
0 0.05263157894758741 0
0.4374856279758046 0.955462795473483 0
0.625531914893563 0.2394317949808221 0
0.7891616249544176 0.9557759867023439 0
2.570562443351098 0.9559758769411787 0
2.364406779663917 0.9559648099769389 0
2.161016949154874 0.9559648099769389 0
1.957627118646171 0.9559648099772646 0
1.756856606547665 0.9560078743553572 0
1.553415402058453 0.9561420672712786 0
1.347457627122422 0.95627738856474 0
1.144067796613377 0.9563034567995272 0
0.04146670856173688 0.5498854761242812 0
0.9828861012149002 0.2442383967812095 0
2.465390809289578 0.2421522008426663 0
2.259572257543314 0.243586373321511 0
2.055319178697841 0.24363095694403 0
1.851066099915384 0.2436741865527954 0
1.646810778591931 0.2437170671454607 0
1.442550972205278 0.2437587738062726 0
1.238275543433999 0.2442249255777628 0
0.5808319854219957 0.2417757800606361 0
0.6039807146029165 0.2785115072887754 0
2.951522810440164 0.5995349944823752 0
0.5591131416216563 0.2791940688436214 0
0.5817690965011905 0.3180386921514113 0
0.5363223429032008 0.3181181454258206 0
0.5590799034518541 0.3577335228902347 0
2.671507320584846 0.2416532643303031 0
0.5129751095268966 0.3576683284772433 0
0.5360042291720796 0.3976917483469583 0
0.5824744072527975 0.3977458985417416 0
0.5593202208963615 0.4382323507424581 0
0.6062221806132498 0.4382172989803606 0
0.5831398502988122 0.4790536480492864 0
0.630245509211025 0.4792447281197085 0
0.5373735766893435 0.4817209888486334 0
0.2780994584865757 0.9660670791366374 0
0.9407829849899363 0.9559852449915113 0
0.6069171020766708 0.5203953730037822 0
0.6544691944766102 0.5205851219036783 0
2.724115018794794 0.9563165682871465 0
0.04341732373162228 0.2894490564426765 0
0.6304562046384772 0.5622881188475496 0
0.6786259291441818 0.5621981517123112 0
0.03938236249337418 0.7091098825652095 0
0.2999999999993055 0.04723774929726795 0
0.7024556039582556 0.5200372393771872 0
0.726826368578132 0.562505099575485 0
0.6545296629344706 0.6041261864689124 0
0.6061411599039735 0.6041581669226386 0
2.954333097254252 0.4393531299125908 0
0.7512905139641642 0.5199435586712576 0
0.7757938242112172 0.5624873891767795 0
0.4902278874550028 0.3174350849704655 0
0.4661669324669476 0.3576870257641042 0
0.8003371868304782 0.5195844107098163 0
0.8251782158071723 0.5621174250913318 0
0.6300572939290072 0.6460588488486728 0
0.581677101888915 0.6462390077748084 0
0.7994632498085218 0.6067218912904607 0
0.850068894442807 0.6047738158182728 0
0.8747482025846163 0.5617915498272615 0
0.8998102571129438 0.6045430073239006 0
0.924588798996443 0.5614360364847856 0
0.9497125983499418 0.6046345614192383 0
0.9744389394813738 0.5613114208485291 0
0.9997656958801404 0.604758732930365 0
1.024028015453996 0.5597386087889248 0
1.050046148741532 0.6042836632406788 0
1.075213347289947 0.5607219500906248 0
1.100604808237692 0.6043040651294929 0
1.125727120818654 0.5598592244124957 0
1.151165990249003 0.6040638744783449 0
1.176319565514503 0.5595216793632644 0
1.201793840633129 0.6038781229769293 0
1.226960854257978 0.5600604284234054 0
1.252470704079807 0.6038664424080111 0
1.277198987313166 0.55874807111347 0
1.303148970446812 0.6035341865995129 0
1.328130525802366 0.5586520846649797 0
1.353966012915828 0.6034054551655909 0
1.379205474149696 0.558835304845746 0
1.404820923589671 0.6032503772964327 0
1.430092956912838 0.5587079795953892 0
1.455686300628245 0.6030926920218221 0
1.480963489515269 0.5580480170404921 0
1.506562983627252 0.6028436706904448 0
1.531847734917255 0.5577680566445021 0
1.557453558526421 0.6026435181305781 0
1.582745756648754 0.5575726351194972 0
1.608358176126191 0.6024617369905624 0
1.633656322435163 0.5573842056888257 0
1.659277805706528 0.6022873884346892 0
1.684577462424181 0.5572075399874397 0
1.710203504633815 0.6021111834258887 0
1.735506494091908 0.5570246051384745 0
1.761134606493805 0.6019307913070558 0
1.786441498808711 0.5568475628142857 0
1.812072359676459 0.6017522495250318 0
1.837381834584306 0.5566653603575672 0
1.863017119880456 0.601574020443024 0
1.888326681794851 0.5564884669211013 0
1.913963858781491 0.601395113412113 0
1.939274704592935 0.5563067813822595 0
1.964908406083961 0.6012129143420911 0
1.990224566339525 0.5561292537946573 0
2.015859329864652 0.601032757987411 0
2.041177190815608 0.5559477304122714 0
2.066818109147928 0.600855564813206 0
2.09213259478423 0.5557710179709322 0
2.117774443326183 0.6006760179252703 0
2.143088896138059 0.5555900146741853 0
2.168729305797513 0.6004921726308964 0
2.194045774061603 0.5554125217101814 0
2.219686577151481 0.6003111949874665 0
2.245003702950199 0.5552312296013228 0
2.270641766736839 0.6001298880828497 0
2.295962173634055 0.5550546947866846 0
2.321601310982481 0.599950595338254 0
2.346923922781879 0.5548708301001631 0
2.372568004594504 0.5997713467128002 0
2.397895756972162 0.5547000681173012 0
2.423546697517365 0.5996004731097838 0
2.448884659670238 0.5545095609010697 0
2.474538141419978 0.5994220729206983 0
2.499902931415869 0.5543494429014709 0
2.525546234724433 0.5993228147833797 0
2.550973655834774 0.5541346321759457 0
2.576685338327378 0.5992395038842441 0
2.602182482443039 0.5540180644105763 0
2.958944511946492 0.7598964409357507 0
2.628014314012249 0.5990918128353608 0
0.4429170888396284 0.3159793431387367 0
0.4184631156771032 0.357715436029677 0
0.3946070818022522 0.3157219358498637 0
0.3697276561976696 0.3576135465858128 0
2.449044355814981 0.643990885448769 0
2.24531935830005 0.6444881680698032 0
1.024857369602972 0.6487487015028032 0
2.041498164113345 0.6452136474256573 0
1.837701628146142 0.6459229900926835 0
0.3455853078837237 0.3150377509381005 0
0.3204780172155196 0.3574251905568473 0
0.3449438693484468 0.4002519798591844 0
1.633970683060678 0.6466170330762969 0
1.227333380683899 0.6479317947648683 0
1.430444030483603 0.6473399689389928 0
0.875196942148915 0.6483605753517908 0
0.6057010339261732 0.6883083412871458 0
0.5571396249147901 0.6885103796531055 0
2.653543252321963 0.5527758280498023 0
1.099471497978971 0.5148848291986879 0
2.602427017093663 0.6438096025956825 0
2.653851606946175 0.6437140715169269 0
1.353138019780104 0.5138574114565649 0
1.556762689169365 0.5115839513085039 0
1.760509743411542 0.5109012431757174 0
1.964341412665395 0.510388685431229 0
0.2953909602266698 0.4001745965167012 0
[...]
    <PointData>
      <DataArray type="Float64" NumberOfComponents="3" Name="Velocity" format="ascii">
3.000000082659348 0 0
0 0 0
0 0 0
3.202456134189472 0 0
3.204250246863116 0 0
3.000000000000171 0 0
2.999999976933678 0 0
2.999999737397435 0 0
3.000002218006148 0 0
2.999985649842297 0 0
3.000068380235817 0 0
2.999907430407759 0 0
2.998138797695248 0 0
3.017765643613851 0 0
2.989616178153254 0 0
1.987804610650428 0 0
0 0.009227776879163157 0
0 -0.003754878778165734 0
0 0.04076318723444836 0
0 0.1638424850529448 0
1.92814920243431 0 0
2.672315155191463 0 0
2.928778763211219 0 0
2.994068900554243 0 0
3.001940193155917 0 0
3.000356842434581 0 0
2.99985441391081 0 0
2.999996054876528 0 0
3.000011428451073 0 0
2.999996773366332 0 0
3.000000300779912 0 0
3.000000136407488 0 0
2.999999922511748 0 0
3.000000027349919 0 0
2.999999991381498 0 0
3.000000002415675 0 0
2.99999999940532 0 0
3.000000000129678 0 0
2.999999999975146 0 0
3.00000000000398 0 0
2.999999999999577 0 0
2.999999999999978 0 0
3.000000000000031 0 0
2.999999999999985 0 0
3.000000000000016 0 0
2.99999999999996 0 0
3.000000000000063 0 0
3.000000000000012 0 0
2.999999999999852 0 0
2.999999999999255 0 0
3.000000000004201 0 0
3.000000000003399 0 0
2.999999999907859 0 0
3.00000000029911 0 0
3.00000000006747 0 0
2.999999997401828 0 0
3.000000007196328 0 0
3.000000009004351 0 0
2.999999809821491 0 0
3.000001134607656 0 0
2.999996455740446 0 0
2.99999603979188 0 0
3.000089981877504 0 0
2.999625507611588 0 0
2.999455660089517 0 0
3.028970896585423 0 0
3.204179163161947 0.0006714014356834422 0
3.193962684017819 -0.0001220397885620592 0
3.195086951043597 0.0001482462966045073 0
3.194763597009246 -0.000117527440931482 0
3.196903712299637 -0.0002155411671258969 0
3.199263237509034 -8.243453141955013e-05 0
3.197295289487463 0.0001804834301507998 0
3.196571826030771 -0.0003780247851014395 0
3.200200561878822 -3.521657422267009e-05 0
3.197897867870479 0.0001318158795758428 0
3.199241826199009 0.0001476217308543746 0
3.19585209441306 0.0001549634516335352 0
3.194606005253537 -0.0007664581560346811 0
3.206511650624339 -0.0005123560090273335 0
3.025094201488123 0 0
2.999633899222104 0 0
2.99964455320482 0 0
3.000061164837587 0 0
2.999998691339122 0 0
2.99999698908594 0 0
3.000000926586144 0 0
2.999999839972993 0 0
3.000000009896825 0 0
3.000000003561218 0 0
2.999999998886789 0 0
2.999999999668904 0 0
3.000000000273456 0 0
2.999999999948562 0 0
2.999999999993067 0 0
3.000000000005463 0 0
2.999999999999184 0 0
2.999999999999766 0 0
3.000000000000148 0 0
2.999999999999957 0 0
3.000000000000011 0 0
2.999999999999999 0 0
3 0 0
3 0 0
3 0 0
3.000000000000001 0 0
3.000000000000001 0 0
2.999999999999998 0 0
3.000000000000005 0 0
3.000000000000004 0 0
2.99999999999997 0 0
3.000000000000012 0 0
3.000000000000132 0 0
2.999999999999832 0 0
2.999999999999553 0 0
3.000000000000863 0 0
3.000000000001121 0 0
2.999999999997154 0 0
2.999999999997679 0 0
3.00000000000777 0 0
3.000000000010167 0 0
2.99999999999128 0 0
2.999999999974515 0 0
2.999999999977247 0 0
2.999999999985866 0 0
2.99999999998876 0 0
2.999999999992213 0 0
2.999999999989966 0 0
2.999999999997054 0 0
3.000000000000444 0 0
2.999999999997513 0 0
2.999999999999444 0 0
3.000000000001551 0 0
2.999999999999381 0 0
3.000000000000099 0 0
3.000000000000051 0 0
3.000000000000016 0 0
2.999999999999922 0 0
2.999999999999942 0 0
3.000000000000397 0 0
2.999999999999732 0 0
2.999999999992702 0 0
3.000000000020872 0 0
2.999999999958166 0 0
3.000000000116348 0 0
2.999999999629465 0 0
2.999999999469332 0 0
3.000000001179698 0 0
3.000000002323821 0 0
2.999999999817937 0 0
2.999999988849634 0 0
2.99999997600354 0 0
2.999999968879457 0 0
2.999999969376198 0 0
2.99999999131319 0 0
3.000000015460122 0 0
3.000000000003501 -1.365491307124295e-12 0
2.00065271801128 0.2843838604476834 0
3.000000000052724 3.263401461604766e-11 0
2.999999907436448 -3.669614291406035e-09 0
2.999999999633268 -1.830151206252798e-11 0
2.999999999998919 3.852736948359632e-13 0
3.000000000000008 -7.765020425146357e-15 0
3 -7.404893533599701e-16 0
3 1.378667720616668e-15 0
2.99999999999989 3.852872839847648e-14 0
2.99999999999724 3.677966731100376e-14 0
3.000000000457463 -1.857273927724102e-10 0
2.999942800058364 9.782676567445144e-06 0
2.999999992202913 5.80594593008005e-10 0
3.000000000035148 -2.654661423233143e-12 0
3.000000000000146 1.129844080064394e-14 0
2.999999999999991 4.646682994532808e-15 0
2.99999999999681 4.638619984000119e-14 0
3.00000000004336 1.132274106718165e-12 0
2.999999880811909 6.83600351421314e-09 0
2.211669102610969 0.2707891602738179 0
2.67457247538029 0.197443904629521 0
3.037862390989469 -7.722056870611647e-05 0
2.837555729117631 0.09148705733988886 0
2.947535291504426 0.04836752878714513 0
2.987661232093519 0.01061137507657775 0
2.998200169370592 0.003442301074980944 0
3.00000039874816 -1.290951428053651e-07 0
3.001071372945819 -0.0004112044274294962 0
3.000566245367934 -0.0004860327488698507 0
3.000809209520961 -0.0004586757124450788 0
3.00009854408068 -0.0002069006262777152 0
3.000279156971163 -0.0005449127397363346 0
2.99997344494183 1.796319519423069e-05 0
2.999992010219687 -3.566356323955536e-05 0
2.999971860118797 3.104572781544906e-05 0
3.000000000001037 -1.541651744057512e-12 0
2.999999999978031 -5.915482950488791e-12 0
2.999989715606367 3.040541478000171e-05 0
2.999994254213435 4.096268804380572e-05 0
2.999993848513406 -4.758625427179312e-07 0
3.00000000322495 -8.778977054887276e-10 0
3.000000685828435 -8.653635631756407e-07 0
3.000000494768647 2.533627329949617e-07 0
2.999999999978102 1.064580466471605e-11 0
3.000145135352978 -5.650236083010919e-06 0
3.000001715745908 3.64900661562173e-05 0
3.000000746278858 -2.353751214113907e-06 0
2.999999998388758 -2.409624030218773e-06 0
3.000000226705914 -1.697684333472882e-06 0
3.046966785833245 -0.000141241717005387 0
3.000006281847112 2.176148701376326e-05 0
2.99999978253912 -3.974427353358266e-06 0
3.002036133489157 -0.0006700002680537268 0
3.000258374281366 -0.0002088656168722281 0
3.00000785044231 6.474460963910608e-06 0
2.999998149936957 -2.905839671292161e-06 0
2.999999993082395 3.9415281710381e-07 0
2.999999924616973 4.499603435970785e-07 0
2.999999663108714 2.233477604159118e-07 0
3.000000187826343 5.75324004221194e-07 0
2.999998672859776 -3.422973009763976e-07 0
3.000000348502689 2.636163046245829e-07 0
2.999999968335579 7.877421304661088e-07 0
3.000000117679805 -8.639260703734111e-08 0
3.000000430665491 2.076406782779818e-07 0
2.999999906641982 -8.627819763308592e-08 0
3.00000012374873 -1.980512753007694e-07 0
2.999999953493131 2.926263465687642e-08 0
2.999999922903589 -4.246920041786355e-08 0
3.000000010513455 2.281616546967634e-08 0
2.999999953238011 4.85044440633207e-08 0
3.000000014667233 -1.180399944992608e-08 0
3.000000017938355 -1.221955010857704e-09 0
2.999999996522012 -1.500820473359353e-09 0
3.000000007713963 -7.426571775452219e-09 0
2.999999997627281 2.386450725957426e-09 0
2.999999994374351 2.80913964754366e-09 0
3.000000001516413 -7.972441694312855e-10 0
3.000000001373039 -4.498262709082866e-10 0
2.99999999966765 9.679873799869636e-11 0
2.999999999994791 -2.794380297489883e-11 0
2.999999999957534 3.188656219675569e-11 0
2.999999999885891 3.739541954625365e-11 0
3.00000000006139 -2.314237258319414e-11 0
3.000000000053076 -1.34571457673629e-11 0
2.999999999971982 8.542965942545699e-12 0
2.999999999983095 3.569453458684542e-12 0
3.000000000009182 -2.44429866605808e-12 0
3.000000000004673 -8.334927005641199e-13 0
2.999999999997413 6.221420081819241e-13 0
2.999999999998754 1.832512473757892e-13 0
3.000000000000702 -1.528874746832259e-13 0
3.00000000000031 -3.559735093892805e-14 0
2.99999999999981 3.789992584461673e-14 0
2.999999999999932 4.965003751264017e-15 0
3.000000000000054 -8.269770390634674e-15 0
3.000000000000012 -2.732647030836324e-16 0
2.999999999999985 2.095022434094425e-15 0
2.999999999999996 -1.64083922444632e-16 0
3.000000000000002 -1.592713221074011e-15 0
3.000000000000005 -8.266527378446016e-16 0
2.999999999999999 5.937913011869202e-15 0
2.999999999999988 4.70315698973488e-15 0
3.000000000000012 -1.994530003438549e-14 0
2.999999999999996 -1.344627526358287e-14 0
2.999999999999971 4.134425942454045e-14 0
3.000000000000107 2.457356443961203e-14 0
2.999999999999917 -4.479532810670227e-14 0
2.999999999999889 -3.124967184998348e-14 0
3.000000000000267 -3.055737518820278e-14 0
2.999999999999135 3.095108718553531e-14 0
3.000000000001808 2.349205970288282e-13 0
3.000000000001942 -7.568764517600115e-14 0
2.999999999986681 -4.319953778121947e-13 0
3.000000000013604 4.079406692635636e-13 0
3.000000000025371 2.017365562513345e-13 0
2.99999999991211 -1.917824372257093e-12 0
3.00000000008778 7.296718012024729e-13 0
3.000000000129594 8.433781275877704e-12 0
2.999999999381257 -1.911237606392098e-12 0
3.000000000565994 -3.667326173465278e-11 0
3.000000001458258 4.539595345082608e-13 0
2.999999996853223 1.644478550432809e-10 0
2.999999996797274 2.698231245472416e-11 0
3.000000012045378 -6.488725453457083e-10 0
3.000000015670305 -2.090271074548271e-10 0
2.999999957941783 1.095679906714612e-09 0
2.999999917744122 1.044003539762719e-09 0
3.000000061842491 7.656036612142514e-09 0
3.055979411316464 0.0001124475889039083 0
3.000000441680209 -1.386123334811437e-09 0
3.00036307447206 -0.0002218437044556519 0
2.999910122107271 2.835585801149732e-05 0
2.999849529428249 3.886371655961417e-05 0
2.999997325386016 5.998436330947253e-06 0
2.999999996918969 -1.564089390678213e-10 0
3.000000000014815 4.535240866743551e-13 0
3.000000021061326 2.59789261941261e-08 0
2.999999999999947 -1.111234380598962e-13 0
3.000000000000006 4.255384289009872e-16 0
3.000006822751206 1.263384448385848e-06 0
3.000005206811538 -1.652196862561875e-06 0
3.000005160602606 -2.105047788533446e-06 0
3.000000000000877 -2.51141712796771e-13 0
3.000000001090185 3.532895997828934e-10 0
3.000000000009063 -1.070940856710105e-11 0
3.000000032283303 -6.90268277094195e-08 0
2.999999988671172 3.843252545564417e-08 0
3.000000009790137 -5.752498392939658e-08 0
3.000000420384049 -5.799920725120525e-08 0
3.000000082499524 -1.502084680978817e-07 0
3.00000007651884 -6.577926185455591e-09 0
3.000000360321626 4.505488277266984e-08 0
3.000000001133052 -3.229827575321999e-10 0
3.000000000000964 -8.824921146718592e-13 0
3.000000000000051 -9.644677315799184e-15 0
3.000000000000039 1.919337877857113e-14 0
2.99999966430272 -1.745337832677582e-07 0
2.999999366558882 -1.304676848092307e-08 0
3.000000000001148 -2.649184861420577e-14 0
2.999999999409324 2.596636334545684e-12 0
2.999999880979283 5.513527039474798e-09 0
2.999982116635186 2.723285005125488e-05 0
2.999998406058525 1.542362418019861e-07 0
3.000000589916294 1.518797914992156e-08 0
2.999998174715017 5.365617187468721e-08 0
3.000000004503841 -2.928481959614523e-08 0
2.999999997630987 -4.778340456815946e-08 0
3.000000000523627 -1.384459379191501e-09 0
3.000000026044082 -5.255226204306802e-08 0
2.999999994361334 9.251528322495077e-09 0
3.000000006039303 -1.447606321444074e-08 0
2.999999997110553 4.810308753058901e-09 0
2.999999990002804 7.676736596659734e-09 0
3.000000002468866 -1.822279148867184e-09 0
2.999999997543207 4.253443057101204e-09 0
3.000000000184138 -7.772336993176243e-10 0
3.000000003141763 -2.096072092176426e-09 0
1.271087168967382 0.05809982966024786 0
3.000241116693461 -8.748151821357718e-05 0
2.999999999347283 5.600583820030391e-10 0
3.000003835911103 -5.985946030610543e-07 0
2.999946347004981 -1.736789616102261e-05 0
2.999999684929877 1.863803441715695e-07 0
3.002462606826808 0.0003508671036064566 0
2.999999999050236 1.984128870255028e-10 0
3.000000606964683 -1.153223778936135e-09 0
3.000000066208161 -1.690449629633242e-10 0
2.999995092054514 7.695623799544062e-09 0
2.999998931062335 -4.090904750653602e-07 0
2.871589799361715 0.04704838343380513 0
2.999999998909224 8.636256829383708e-09 0
2.999998640658315 8.033865306156372e-08 0
2.999999998172122 2.552257065998212e-10 0
3.000000023513667 -4.266399129850215e-09 0
3.000011167968472 -2.194128810973235e-06 0
2.999998734057037 7.426891846216112e-07 0
3.000000000002512 3.785359619278207e-13 0
3.000000000025964 -9.105009423292247e-12 0
2.999999999998219 -3.77673634872348e-13 0
2.999999999999987 1.257106047606493e-15 0
3.000000000000061 -1.581715858376066e-14 0
3.000000000009487 -3.334078923119256e-12 0
3.000000000000016 -2.906338311980712e-13 0
3.00000000000004 1.539846950454265e-14 0
2.999999999291001 2.500143239030757e-11 0
2.999999999966159 7.943101892563019e-13 0
2.999999999999822 2.074158796342176e-15 0
2.99999998983191 -4.645864531716935e-08 0
3.000000001881597 -2.459974949063017e-11 0
2.999999999627097 2.216779972184841e-10 0
2.999999999999785 9.359542901839825e-14 0
3.000000000000004 -1.000534607729873e-14 0
2.999999993783816 -4.069626972470357e-10 0
3.000000000007628 8.175645765456173e-13 0
3.000000000000677 -9.153305711372253e-14 0
3.000000000041574 8.358243822435111e-13 0
3.000000000000001 -2.181499626376835e-16 0
3.000000000000004 -5.671766836773759e-15 0
2.999999999999975 1.632920255755504e-13 0
2.9999999968168 -6.413433479923317e-09 0
3.000000000000037 3.451209311803838e-14 0
3.000000000000004 1.814802307632954e-15 0
3.000000000000272 -9.9485668374665e-14 0
3.000000000007696 -6.970001774497164e-12 0
3.000000000175364 -3.351229920693047e-12 0
3.000000000011802 9.508708462811398e-13 0
2.999999990913294 1.439233343521372e-08 0
2.999999871074832 3.3943548734011e-09 0
2.999999998880258 -8.669306286336768e-09 0
2.999968537430799 4.558935492144719e-06 0
3.001647632120148 5.880965651450696e-05 0
2.999999997410598 8.035440317880242e-11 0
2.999999693130677 1.549631551094026e-07 0
2.999999999323358 6.03134196871259e-10 0
3.000486961450143 0.0002466264177339546 0
3.000000127242394 -3.725412074391663e-08 0
3.00000000033799 -1.829579939716178e-10 0
3.000000002452915 2.815895834843555e-10 0
3.000000001833409 -1.96868373687815e-09 0
3.00001930138541 -1.191911219644906e-07 0
3.000000543313261 -2.056224768731209e-08 0
2.999999885664362 6.972269959817287e-09 0
3.000000001409231 -1.971490901434162e-09 0
3.000000000017264 -4.235712947267442e-12 0
3.000000026378304 -5.282573393150111e-09 0
3.000046176173235 -5.245308963458432e-07 0
3.000000000033389 -8.348694067917541e-11 0
3.000004236016399 -2.416412480633728e-06 0
3.000015516922063 -3.860779670158103e-06 0
2.999993671388357 1.421521890293644e-06 0
2.999999868835642 6.220684436523061e-09 0
2.999998291394445 4.096526529955668e-07 0
3.000047276029209 4.706337316249839e-07 0
3.048183967343756 0.0003810392136172459 0
3.034960641407859 -0.0004560064944224477 0
2.999999078669332 3.38899573186064e-07 0
2.999999999943996 5.47714532433529e-11 0
3.000003233683641 3.082998332953686e-05 0
2.999929534926865 -9.932308222260807e-05 0
2.999956413842288 4.154429899693665e-05 0
3.000023597515216 -7.00496030035258e-07 0
3.000000048717899 4.131892682515512e-07 0
2.753299815768362 0.07901280944448143 0
3.000001434699623 -1.57654621325178e-06 0
3.000000134852716 -3.511423293244741e-08 0
2.999999983021582 -1.35274701357355e-09 0
2.999999975585618 2.445891421291618e-09 0
3.00000092618591 -1.394251957173201e-07 0
3.000000000019167 -2.238198358086888e-12 0
2.99998440290012 -0.0003575009586091327 0
2.999875850464864 2.384932195138683e-05 0
3.000431654721629 -0.0004993080168142123 0
2.999980593097009 5.757410731101518e-06 0
3.000042264425124 -3.956930772292245e-07 0
3.000000000001037 -8.010926912605181e-12 0
2.999999999899155 3.839783886681508e-12 0
3.000000065958662 3.376825217547731e-09 0
2.999999956017967 1.466516772758833e-09 0
3.000000020845059 -1.46023319456661e-09 0
3.000000012932029 -7.092947825322075e-10 0
2.999999995766366 2.415462716751084e-10 0
2.999999996936597 1.884700051165833e-10 0
3.000000001734315 -4.617931627666119e-11 0
3.000000000250962 -4.850024652537347e-11 0
2.999999999345402 1.315678046573446e-11 0
3.000000000215209 1.16965415505239e-11 0
3.000000000086795 -5.457701679259564e-12 0
2.999999999913387 4.668113763708673e-13 0
3.000000000027196 8.310680780108186e-13 0
3.000000000007385 -1.418228650631786e-12 0
2.999999999983998 6.375772655099339e-13 0
3.000000000005105 2.724494736593453e-13 0
3.000000000003718 -5.479924208781618e-13 0
2.999999999997411 1.718929661753044e-13 0
2.999999999999643 2.789147145228434e-13 0
3.000000000000694 -1.645484784332424e-13 0
2.999999999999919 -1.231430370698827e-13 0
2.999999999999868 9.239785388817784e-14 0
3.000000000000066 4.346925657595155e-14 0
3.000000000000015 -4.635068860287448e-14 0
2.999999999999969 -6.114003673700522e-15 0
3.000000000000002 2.085084554840858e-14 0
3.000000000000013 -5.144442620201533e-15 0
3 -7.817490682795432e-15 0
2.999999999999996 5.855311954795282e-15 0
3 2.233828108832253e-15 0
3.000000000000002 -3.395883141857955e-15 0
3.000000000000002 -3.22519275165617e-16 0
3 1.016264709792547e-15 0
3.000000000000002 -8.108318067969197e-16 0
2.999999999999991 3.07037988799503e-15 0
2.99999999999999 4.981446303362466e-15 0
3.000000000000046 -1.965819139868562e-14 0
3.000000000000019 -1.50527671786094e-14 0
2.999999999999893 6.450565785987746e-14 0
3.000000000000013 1.828191165569004e-14 0
3.000000000000057 -1.136811584503327e-13 0
2.999999999999838 3.532930121921427e-14 0
3.000000000000538 -4.479101790203258e-14 0
3.000000000000325 -2.345851856845453e-13 0
2.999999999998168 9.526401699443223e-13 0
3.00000000000021 4.499541301602674e-13 0
3.000000000001261 -2.708795049311623e-12 0
2.999999999997849 2.222849472473583e-13 0
3.000000000007307 1.708577230382763e-12 0
3.000000000001966 -2.812695497700611e-12 0
2.999999999982751 1.076251136809641e-11 0
3.000000000009722 3.858526860190181e-12 0
2.999999999978986 -2.931092069575769e-11 0
2.999999999979951 7.684044867296862e-12 0
3.000000000114055 -8.198109650053234e-12 0
2.999999999964511 -2.368808184358056e-11 0
3.000000000038729 1.312128507923963e-10 0
3.000000000118449 -8.415029433917147e-12 0
2.999999999419296 -8.434245775003757e-11 0
3.000000000058828 8.467615516603399e-11 0
3.000000000221462 -3.772478231614589e-10 0
2.999999999617268 -5.476470992099225e-11 0
3.000000001518283 6.192114964715498e-10 0
3.000000000082375 -1.807220242690601e-10 0
2.999999998453048 3.898618651776846e-10 0
3.000000001017629 4.516568654700221e-10 0
2.999999996207357 -2.862488072841177e-09 0
3.000000000350214 6.771576910320656e-10 0
2.999999999856938 -2.107887289808161e-09 0
2.99999999844072 -1.15694185698014e-09 0
3.000000005130923 5.135394151531186e-09 0
2.99999999766154 -2.905615901885329e-09 0
3.000021268147432 3.567726998563555e-08 0
2.999985414224315 -3.313027777364334e-06 0
2.999999992491687 7.46322236724896e-09 0
3.000000006331567 -2.920008864942341e-09 0
3.000007147682479 -2.201043598168586e-06 0
3.000076278107019 -1.279738709084188e-05 0
2.999753991435764 7.012922259984837e-06 0
3.000000006916495 1.178949968439506e-08 0
2.999999998153003 -2.418955948714054e-09 0
2.999999992955407 -8.954977640067679e-09 0
3.000000296886996 -8.059063004532663e-08 0
2.999615986732278 7.543737441575108e-07 0
2.999989555480782 -6.640692713915106e-06 0
2.999227887084024 -1.877165483586409e-05 0
2.9997662106633 2.059578963094235e-07 0
3.000048588633199 1.165055292880127e-07 0
3.000003022259431 2.717240909024125e-06 0
3.000020042237465 -5.809853200465292e-07 0
3.000053572353734 -5.848614292585055e-07 0
2.999998808876605 -8.215316825008324e-07 0
3.000030050057973 -2.667561087105091e-07 0
2.999996150354082 8.871574067981827e-09 0
2.999947180220599 6.715858934262619e-07 0
2.999998068872521 7.692479052425772e-08 0
3.000000259744147 1.891567763421075e-08 0
2.999999456875575 3.902923634147985e-07 0
2.999999614730284 -2.038062337494072e-07 0
2.999999998694036 2.858352611418366e-09 0
3.000000000290618 1.212480295016151e-10 0
2.999999774658597 4.706859375419029e-09 0
2.999999999999975 2.418539751694184e-14 0
2.558941503626775 -0.004689424830381837 0
3.000000563529241 1.908065118490511e-08 0
3.000000082987191 -3.261927352468544e-09 0
2.999999897200738 -8.033707265874351e-09 0
2.999999956405706 -3.021442356486026e-10 0