<?xml version="1.0"?>
<VTKFile type="UnstructuredGrid">
  <UnstructuredGrid>
  <Piece NumberOfPoints="1224"  NumberOfCells="2290">
    <Points>
      <DataArray type="Float64" NumberOfComponents="3" format="ascii">
0 0 0
0.6 0 0
0.6 0.2 0
48 0.2 0
48 1 0
0 1 0
0.05454545454535233 0 0
0.1090909090906768 0 0
0.1636363636359771 0 0
0.2181818181812728 0 0
0.2727272727265793 0 0
0.3272727272720317 0 0
0.3818181818176247 0 0
0.4363636363632168 0 0
0.4909090909088285 0 0
0.5454545454544089 0 0
0.6 0.03999999999991203 0
0.6 0.07999999999979179 0
0.6 0.1199999999997886 0
0.6 0.1599999999998948 0
4.851606026774644 0.2 0
6.183266656875587 0.2 0
7.305453181021285 0.2 0
8.358740272508921 0.2 0
9.369609828261579 0.2 0
10.35364799506617 0.2 0
11.3188363611358 0.2 0
12.27102913140815 0.2 0
13.21386419796713 0.2 0
14.14977693480411 0.2 0
15.08050411334221 0.2 0
16.00729503878954 0.2 0
16.9310564746228 0.2 0
17.85248764092099 0.2 0
18.77209534507031 0.2 0
19.69026357016175 0.2 0
20.60729592772411 0.2 0
21.52342688351527 0.2 0
22.43884010122945 0.2 0
23.35367946153991 0.2 0
24.26805910188058 0.2 0
25.18206932758954 0.2 0
26.09578231184384 0.2 0
27.00925555236056 0.2 0
27.92253524716269 0.2 0
28.83565839728546 0.2 0
29.74865485095701 0.2 0
30.66154861114147 0.2 0
31.57435909811541 0.2 0
32.48710198253924 0.2 0
33.39978997287436 0.2 0
34.31243335311661 0.2 0
35.22504047898099 0.2 0
36.13761812810284 0.2 0
37.05017180119528 0.2 0
37.96270597260595 0.2 0
38.87522440846944 0.2 0
39.78773009307135 0.2 0
40.70022537526206 0.2 0
41.61271236175082 0.2 0
42.52519269117652 0.2 0
43.43766772314874 0.2 0
44.35013862370647 0.2 0
45.26260652572392 0.2 0
46.17507221034458 0.2 0
47.08753647368451 0.2 0
48 0.2533333333332341 0
48 0.3066666666664725 0
48 0.3599999999996274 0
48 0.413333333332804 0
48 0.4666666666659806 0
48 0.5199999999991571 0
48 0.5733333333323336 0
48 0.6266666666656895 0
48 0.6799999999991551 0
48 0.7333333333326146 0
48 0.7866666666660802 0
48 0.8399999999995775 0
48 0.8933333333330373 0
48 0.9466666666664969 0
47.09143670272573 1 0
46.18287408650429 1 0
45.27431286761383 1 0
44.36575384465981 1 0
43.45719786255542 1 0
42.54864588577722 1 0
41.640099131376 1 0
40.73155880831433 1 0
39.82302681066561 1 0
38.91450488120023 1 0
38.00599546649221 1 0
37.09750164666329 1 0
36.18902671746981 1 0
35.28057535705117 1 0
34.37215251219326 1 0
33.46376522160205 1 0
32.55542087464967 1 0
31.64713038756572 1 0
30.73890427973099 1 0
29.83075924326705 1 0
28.92271162050073 1 0
28.0147858796603 1 0
27.10700932817344 1 0
26.19941543413186 1 0
25.29204655462809 1 0
24.38495474697818 1 0
23.47820363994 1 0
22.57187238184232 1 0
21.66606043127205 1 0
20.76088222836026 1 0
19.85648240625266 1 0
18.95305604642898 1 0
18.05080290179271 1 0
17.15001353542901 1 0
16.25101477800368 1 0
15.35421264506581 1 0
14.46010525690088 1 0
13.56929194326095 1 0
12.6825059074926 1 0
11.80059827034183 1 0
10.92456700150322 1 0
10.05555400547747 1 0
9.194684359621554 1 0
8.343055864156575 1 0
7.501714037409455 1 0
6.672278425322031 1 0
5.857249291435519 1 0
5.061787106573274 1 0
4.29515960100281 1 0
3.571932915226667 1 0
2.901718887469546 1 0
2.29755115823245 1 0
1.764184527697923 1 0
1.327758839013092 1 0
0.965035136674398 1 0
0.6676112163245413 1 0
0.4196393486305726 1 0
0.2009991663770891 1 0
0 0.9473684210524125 0
0 0.8947368421048248 0
0 0.8421052631576025 0
0 0.7894736842105994 0
0 0.7368421052635962 0
0 0.6842105263165927 0
0 0.6315789473695894 0
0 0.5789473684225861 0
0 0.5263157894755828 0
0 0.4736842105282874 0
0 0.4210526315806998 0
0 0.3684210526331123 0
0 0.3157894736855248 0
0 0.2631578947379374 0
0 0.21052631579035 0
0 0.1578947368427625 0
0 0.1052631578951749 0
0 0.05263157894758741 0
3.293446504605018 0.955462795473483 0
3.903681885367063 0.2394317949808221 0
8.782029905774102 0.9557759867023439 0
40.32670772708998 0.9559758769411787 0
36.6432539152043 0.9559648099769389 0
33.0095699034586 0.9559648099769389 0
29.37668336654833 0.9559648099772646 0
25.79235623992455 0.9560078743553572 0
22.16444957612152 0.9561420672712786 0
18.50133725556242 0.95627738856474 0
14.90588340412811 0.9563034567995272 0
0.1104009231520998 0.5498854761242812 0
11.79785124310924 0.2442383967812095 0
38.44686742211081 0.2421522008426663 0
34.76871298887791 0.243586373321511 0
31.11798990529433 0.24363095694403 0
27.46601759391424 0.2436741865527954 0
23.8111003258221 0.2437170671454607 0
20.14919786892825 0.2437587738062726 0
16.46995303214279 0.2442249255777628 0
2.095340611180228 0.2417757800606361 0
3.752066661980434 0.2785115072887754 0
47.13377345235943 0.5995349944823752 0
2.431785970387115 0.2791940688436214 0
3.623610298421333 0.3180386921514113 0
2.541525596421534 0.3181181454258206 0
3.484116261223926 0.3577335228902347 0
42.13010804205895 0.2416532643303031 0
2.544658490436138 0.3576683284772433 0
3.334474697277198 0.3976917483469583 0
4.247113816424728 0.3977458985417416 0
4.021720255841933 0.4382323507424581 0
4.906971976747946 0.4382172989803606 0
4.641497078477173 0.4790536480492864 0
5.499478093311875 0.4792447281197085 0
3.83775431894848 0.4817209888486334 0
1.52132569472918 0.9660670791366374 0
11.36176628128415 0.9559852449915113 0
5.205122579477683 0.5203953730037822 0
6.048015665331378 0.5205851219036783 0
43.07039061316984 0.9563165682871465 0
0.0667883461116973 0.2894490564426765 0
5.725773085427913 0.5622881188475496 0
6.563041985890576 0.5621981517123112 0
0.1319278387142135 0.7091098825652095 0
0.3020176364414038 0.04723774929726795 0
6.899660799661315 0.5200372393771872 0
7.406213774410617 0.562505099575485 0
6.226491299712464 0.6041261864689124 0
5.404083865075778 0.6041581669226386 0
47.18398078676026 0.4393531299125908 0
7.769067650736465 0.5199435586712576 0
8.266661016865321 0.5624873891767795 0
1.693588895559779 0.3174350849704655 0
1.785544192902416 0.3576870257641042 0
8.644559185187035 0.5195844107098163 0
9.138761203194713 0.5621174250913318 0
5.887467574734845 0.6460588488486728 0
5.084717285130412 0.6462390077748084 0
8.736550519770208 0.6067218912904607 0
9.621830764611817 0.6047738158182728 0
10.0184574829759 0.5617915498272615 0
10.4987917467256 0.6045430073239006 0
10.90597196608436 0.5614360364847856 0
11.38242542562306 0.6046345614192383 0
11.79575047432864 0.5613114208485291 0
12.27124936440878 0.604758732930365 0
12.6812044494592 0.5597386087889248 0
13.16562267488854 0.6042836632406788 0
13.59713115328506 0.5607219500906248 0
14.06638261102363 0.6043040651294929 0
14.50046369561231 0.5598592244124957 0
14.96794475269398 0.6040638744783449 0
15.40552057793319 0.5595216793632644 0
15.87130327090749 0.6038781229769293 0
16.31163137430778 0.5600604284234054 0
16.77596353930807 0.6038664424080111 0
17.21007130931971 0.55874807111347 0
17.68087449067139 0.6035341865995129 0
18.12106757410263 0.5586520846649797 0
18.58848407417367 0.6034054551655909 0
19.03451880514514 0.558835304845746 0
19.49689325324905 0.6032503772964327 0
19.94447183271208 0.5587079795953892 0
20.40558069336642 0.6030926920218221 0
20.85398691842208 0.5580480170404921 0
21.314528262869 0.6028436706904448 0
21.76369136693045 0.5577680566445021 0
22.22377153833741 0.6026435181305781 0
22.67356962602728 0.5575726351194972 0
23.13329756796296 0.6024617369905624 0
23.58360793364296 0.5573842056888257 0
24.04311388466341 0.6022873884346892 0
24.49377782243239 0.5572075399874397 0
24.95305353758792 0.6021111834258887 0
25.40404177229036 0.5570246051384745 0
25.86310058574876 0.6019307913070558 0
26.31437295875613 0.5568475628142857 0
26.77327429921218 0.6017522495250318 0
27.22476655146276 0.5566653603575672 0
27.68357876786126 0.601574020443024 0
28.13521347221833 0.5564884669211013 0
28.59392253734971 0.601395113412113 0
29.04569464130599 0.5563067813822595 0
29.50423007807651 0.6012129143420911 0
29.95619015880969 0.5561292537946573 0
30.41465365162447 0.601032757987411 0
30.8667197497286 0.5559477304122714 0
31.32521916564238 0.600855564813206 0
31.77728646351225 0.5557710179709322 0
32.23574208584865 0.6006760179252703 0
32.68785887759444 0.5555900146741853 0
33.1462394918578 0.6004921726308964 0
33.59843311710399 0.5554125217101814 0
34.05678055161268 0.6003111949874665 0
34.50901918804514 0.5552312296013228 0
34.96728484213771 0.6001298880828497 0
35.41960925063535 0.5550546947866846 0
35.87786725964952 0.599950595338254 0
36.33025321690222 0.5548708301001631 0
36.78857765653675 0.5997713467128002 0
37.24107358105904 0.5547000681173012 0
37.6995026447292 0.5996004731097838 0
38.15219579826886 0.5545095609010697 0
38.61065557135883 0.5994220729206983 0
39.0638402929311 0.5543494429014709 0
39.52210615980376 0.5993228147833797 0
39.97641992897109 0.5541346321759457 0
40.43589779577427 0.5992395038842441 0
40.89146569134402 0.5540180644105763 0
47.26639803061874 0.7598964409357507 0
41.35308216552798 0.5990918128353608 0
1.166319794019899 0.3159793431387367 0
1.268659676730227 0.357715436029677 0
0.8397190717377444 0.3157219358498637 0
0.9165747000732098 0.3576135465858128 0
38.15517724329217 0.643990885448769 0
34.5149491017805 0.6444881680698032 0
12.737348410104 0.6487487015028032 0
30.87310921264253 0.6452136474256573 0
27.23196205618198 0.6459229900926835 0
0.6274391837335048 0.3150377509381005 0
0.6797668635236115 0.3574251905568473 0
0.9574109582740703 0.4002519798591844 0
23.59259734318244 0.6466170330762969 0
16.33589589598928 0.6479317947648683 0
19.95843226860422 0.6473399689389928 0
10.09980818502643 0.6483605753517908 0
5.553805135523004 0.6883083412871458 0
4.768141999306984 0.6885103796531055 0
41.80922444176206 0.5527758280498023 0
14.01491075332099 0.5148848291986879 0
40.89590294917368 0.6438096025956825 0
41.8147890507968 0.6437140715169269 0
18.56301121830549 0.5138574114565649 0
22.20675436836544 0.5115839513085039 0
25.84989830844215 0.5109012431757174 0
29.49320514153657 0.510388685431229 0
0.7065403153148812 0.4001745965167012 0
0.9661374721541361 0.4433206937839571 0
33.1365856379977 0.5096846626216972 0
[...]
    <PointData>
      <DataArray type="Float64" NumberOfComponents="3" Name="Velocity" format="ascii">
-nan -nan 0
-nan -nan 0
-nan -nan 0
-nan -nan 0
-nan -nan 0
-nan -nan 0
-nan -nan 0
-nan -nan 0
-nan -nan 0
-nan -nan 0
-nan -nan 0
-nan -nan 0
-nan -nan 0
-nan -nan 0
-nan -nan 0
-nan -nan 0
-nan -nan 0
-nan -nan 0
-nan -nan 0
-nan -nan 0
-nan -nan 0
-nan -nan 0
-nan -nan 0
-nan -nan 0
-nan -nan 0
-nan -nan 0
-nan -nan 0
-nan -nan 0
-nan -nan 0
-nan -nan 0
-nan -nan 0
-nan -nan 0
-nan -nan 0
-nan -nan 0
-nan -nan 0
-nan -nan 0
-nan -nan 0
-nan -nan 0
-nan -nan 0
-nan -nan 0
-nan -nan 0
-nan -nan 0
-nan -nan 0
-nan -nan 0
-nan -nan 0
-nan -nan 0
-nan -nan 0
-nan -nan 0
-nan -nan 0
-nan -nan 0
-nan -nan 0
-nan -nan 0
-nan -nan 0
-nan -nan 0
-nan -nan 0
-nan -nan 0
-nan -nan 0
-nan -nan 0
-nan -nan 0
-nan -nan 0
-nan -nan 0
-nan -nan 0
-nan -nan 0
-nan -nan 0
-nan -nan 0
-nan -nan 0
-nan -nan 0
-nan -nan 0
-nan -nan 0
-nan -nan 0
-nan -nan 0
-nan -nan 0
-nan -nan 0
-nan -nan 0
-nan -nan 0
-nan -nan 0
-nan -nan 0
-nan -nan 0
-nan -nan 0
-nan -nan 0
-nan -nan 0
-nan -nan 0
-nan -nan 0
-nan -nan 0
-nan -nan 0
-nan -nan 0
-nan -nan 0
-nan -nan 0
-nan -nan 0
-nan -nan 0
-nan -nan 0
-nan -nan 0
-nan -nan 0
-nan -nan 0
-nan -nan 0
-nan -nan 0
-nan -nan 0
-nan -nan 0
-nan -nan 0
-nan -nan 0
-nan -nan 0
-nan -nan 0
-nan -nan 0
-nan -nan 0
-nan -nan 0
-nan -nan 0
-nan -nan 0
-nan -nan 0
-nan -nan 0
-nan -nan 0
-nan -nan 0
-nan -nan 0
-nan -nan 0
-nan -nan 0
-nan -nan 0
-nan -nan 0
-nan -nan 0
-nan -nan 0
-nan -nan 0
-nan -nan 0
-nan -nan 0
-nan -nan 0
-nan -nan 0
-nan -nan 0
-nan -nan 0
-nan -nan 0
-nan -nan 0
-nan -nan 0
-nan -nan 0
-nan -nan 0
-nan -nan 0
-nan -nan 0
-nan -nan 0
-nan -nan 0
-nan -nan 0
-nan -nan 0
-nan -nan 0
-nan -nan 0
-nan -nan 0
-nan -nan 0
-nan -nan 0
-nan -nan 0
-nan -nan 0
-nan -nan 0
-nan -nan 0
-nan -nan 0
-nan -nan 0
-nan -nan 0
-nan -nan 0
-nan -nan 0
-nan -nan 0
-nan -nan 0
-nan -nan 0
-nan -nan 0
-nan -nan 0
-nan -nan 0
-nan -nan 0
-nan -nan 0
-nan -nan 0
-nan -nan 0
-nan -nan 0
-nan -nan 0
-nan -nan 0
-nan -nan 0
-nan -nan 0
-nan -nan 0
-nan -nan 0
-nan -nan 0
-nan -nan 0
-nan -nan 0
-nan -nan 0
-nan -nan 0
-nan -nan 0
-nan -nan 0
-nan -nan 0
-nan -nan 0
-nan -nan 0
-nan -nan 0
-nan -nan 0
-nan -nan 0
-nan -nan 0
-nan -nan 0
-nan -nan 0
-nan -nan 0
-nan -nan 0
-nan -nan 0
-nan -nan 0
-nan -nan 0
-nan -nan 0
-nan -nan 0
-nan -nan 0
-nan -nan 0
-nan -nan 0
-nan -nan 0
-nan -nan 0
-nan -nan 0
-nan -nan 0
-nan -nan 0
-nan -nan 0
-nan -nan 0
-nan -nan 0
-nan -nan 0
-nan -nan 0
-nan -nan 0
-nan -nan 0
-nan -nan 0
-nan -nan 0
-nan -nan 0
-nan -nan 0
-nan -nan 0
-nan -nan 0
-nan -nan 0
-nan -nan 0
-nan -nan 0
-nan -nan 0
-nan -nan 0
-nan -nan 0
-nan -nan 0
-nan -nan 0
-nan -nan 0
-nan -nan 0
-nan -nan 0
-nan -nan 0
-nan -nan 0
-nan -nan 0
-nan -nan 0
-nan -nan 0
-nan -nan 0
-nan -nan 0
-nan -nan 0
-nan -nan 0
-nan -nan 0
-nan -nan 0
-nan -nan 0
-nan -nan 0
-nan -nan 0
-nan -nan 0
-nan -nan 0
-nan -nan 0
-nan -nan 0
-nan -nan 0
-nan -nan 0
-nan -nan 0
-nan -nan 0
-nan -nan 0
-nan -nan 0
-nan -nan 0
-nan -nan 0
-nan -nan 0
-nan -nan 0
-nan -nan 0
-nan -nan 0
-nan -nan 0
-nan -nan 0
-nan -nan 0
-nan -nan 0
-nan -nan 0
-nan -nan 0
-nan -nan 0
-nan -nan 0
-nan -nan 0
-nan -nan 0
-nan -nan 0
-nan -nan 0
-nan -nan 0
-nan -nan 0
-nan -nan 0
-nan -nan 0
-nan -nan 0
-nan -nan 0
-nan -nan 0
-nan -nan 0
-nan -nan 0
-nan -nan 0
-nan -nan 0
-nan -nan 0
-nan -nan 0
-nan -nan 0
-nan -nan 0
-nan -nan 0
-nan -nan 0
-nan -nan 0
-nan -nan 0
-nan -nan 0
-nan -nan 0
-nan -nan 0
-nan -nan 0
-nan -nan 0
-nan -nan 0
-nan -nan 0
-nan -nan 0
-nan -nan 0
-nan -nan 0
-nan -nan 0
-nan -nan 0
-nan -nan 0
-nan -nan 0
-nan -nan 0
-nan -nan 0
-nan -nan 0
-nan -nan 0
-nan -nan 0
-nan -nan 0
-nan -nan 0
-nan -nan 0
-nan -nan 0
-nan -nan 0
-nan -nan 0
-nan -nan 0
-nan -nan 0
-nan -nan 0
-nan -nan 0
-nan -nan 0
-nan -nan 0
-nan -nan 0
-nan -nan 0
-nan -nan 0
-nan -nan 0
-nan -nan 0
-nan -nan 0
-nan -nan 0
-nan -nan 0
-nan -nan 0
-nan -nan 0
-nan -nan 0
-nan -nan 0
-nan -nan 0
-nan -nan 0
-nan -nan 0
-nan -nan 0
-nan -nan 0
-nan -nan 0
-nan -nan 0
-nan -nan 0
-nan -nan 0
-nan -nan 0
-nan -nan 0
-nan -nan 0
-nan -nan 0
-nan -nan 0
-nan -nan 0
-nan -nan 0
-nan -nan 0
-nan -nan 0
-nan -nan 0
-nan -nan 0
-nan -nan 0
-nan -nan 0
-nan -nan 0
-nan -nan 0
-nan -nan 0
-nan -nan 0
-nan -nan 0
-nan -nan 0
-nan -nan 0
-nan -nan 0
-nan -nan 0
-nan -nan 0
-nan -nan 0
-nan -nan 0
-nan -nan 0
-nan -nan 0
-nan -nan 0
-nan -nan 0
-nan -nan 0
-nan -nan 0
-nan -nan 0
-nan -nan 0
-nan -nan 0
-nan -nan 0
-nan -nan 0
-nan -nan 0
-nan -nan 0
-nan -nan 0
-nan -nan 0
-nan -nan 0
-nan -nan 0
-nan -nan 0
-nan -nan 0
-nan -nan 0
-nan -nan 0
-nan -nan 0
-nan -nan 0
-nan -nan 0
-nan -nan 0
-nan -nan 0
-nan -nan 0
-nan -nan 0
-nan -nan 0
-nan -nan 0
-nan -nan 0
-nan -nan 0
-nan -nan 0
-nan -nan 0
-nan -nan 0
-nan -nan 0
-nan -nan 0
-nan -nan 0
-nan -nan 0
-nan -nan 0
-nan -nan 0
-nan -nan 0
-nan -nan 0
-nan -nan 0
-nan -nan 0
-nan -nan 0
-nan -nan 0
-nan -nan 0
-nan -nan 0
-nan -nan 0
-nan -nan 0
-nan -nan 0
-nan -nan 0
-nan -nan 0
-nan -nan 0
-nan -nan 0
-nan -nan 0
-nan -nan 0
-nan -nan 0
-nan -nan 0
-nan -nan 0
-nan -nan 0
-nan -nan 0
-nan -nan 0
-nan -nan 0
-nan -nan 0
-nan -nan 0
-nan -nan 0
-nan -nan 0
-nan -nan 0
-nan -nan 0
-nan -nan 0
-nan -nan 0
-nan -nan 0
-nan -nan 0
-nan -nan 0
-nan -nan 0
-nan -nan 0
-nan -nan 0
-nan -nan 0
-nan -nan 0
-nan -nan 0
-nan -nan 0
-nan -nan 0
-nan -nan 0
-nan -nan 0
-nan -nan 0
-nan -nan 0
-nan -nan 0
-nan -nan 0
-nan -nan 0
-nan -nan 0
-nan -nan 0
-nan -nan 0
-nan -nan 0
-nan -nan 0
-nan -nan 0
-nan -nan 0
-nan -nan 0
-nan -nan 0
-nan -nan 0
-nan -nan 0
-nan -nan 0
-nan -nan 0
-nan -nan 0
-nan -nan 0
-nan -nan 0
-nan -nan 0
-nan -nan 0
-nan -nan 0
-nan -nan 0
-nan -nan 0
-nan -nan 0
-nan -nan 0
-nan -nan 0
-nan -nan 0
-nan -nan 0
-nan -nan 0
-nan -nan 0
-nan -nan 0
-nan -nan 0
-nan -nan 0
-nan -nan 0
-nan -nan 0
-nan -nan 0
-nan -nan 0
-nan -nan 0
-nan -nan 0
-nan -nan 0
-nan -nan 0
-nan -nan 0
-nan -nan 0
-nan -nan 0
-nan -nan 0
-nan -nan 0
-nan -nan 0
-nan -nan 0
-nan -nan 0
-nan -nan 0
-nan -nan 0
-nan -nan 0
-nan -nan 0
-nan -nan 0
-nan -nan 0
-nan -nan 0
-nan -nan 0
-nan -nan 0
-nan -nan 0
-nan -nan 0
-nan -nan 0
-nan -nan 0
-nan -nan 0
-nan -nan 0
-nan -nan 0
-nan -nan 0
-nan -nan 0
-nan -nan 0
-nan -nan 0
-nan -nan 0
-nan -nan 0
-nan -nan 0
-nan -nan 0
-nan -nan 0
-nan -nan 0
-nan -nan 0
-nan -nan 0
-nan -nan 0
-nan -nan 0
-nan -nan 0
-nan -nan 0
-nan -nan 0
-nan -nan 0
-nan -nan 0
-nan -nan 0
-nan -nan 0
-nan -nan 0
-nan -nan 0
-nan -nan 0
-nan -nan 0
-nan -nan 0
-nan -nan 0
-nan -nan 0
-nan -nan 0
-nan -nan 0
-nan -nan 0
-nan -nan 0
-nan -nan 0
-nan -nan 0
-nan -nan 0
-nan -nan 0
-nan -nan 0
-nan -nan 0
-nan -nan 0
-nan -nan 0
-nan -nan 0
-nan -nan 0
-nan -nan 0
-nan -nan 0
-nan -nan 0
-nan -nan 0
-nan -nan 0
-nan -nan 0
-nan -nan 0
-nan -nan 0
-nan -nan 0
-nan -nan 0
-nan -nan 0
-nan -nan 0
-nan -nan 0
-nan -nan 0
-nan -nan 0
-nan -nan 0
-nan -nan 0
-nan -nan 0
-nan -nan 0
-nan -nan 0
-nan -nan 0
-nan -nan 0
-nan -nan 0
-nan -nan 0
-nan -nan 0
-nan -nan 0
-nan -nan 0
-nan -nan 0
-nan -nan 0
-nan -nan 0
-nan -nan 0
-nan -nan 0
-nan -nan 0
-nan -nan 0
-nan -nan 0
-nan -nan 0
-nan -nan 0
-nan -nan 0
-nan -nan 0
-nan -nan 0
-nan -nan 0
-nan -nan 0
-nan -nan 0
-nan -nan 0
-nan -nan 0
-nan -nan 0
-nan -nan 0
-nan -nan 0
-nan -nan 0
-nan -nan 0
-nan -nan 0
-nan -nan 0
-nan -nan 0
-nan -nan 0
-nan -nan 0
-nan -nan 0
-nan -nan 0
-nan -nan 0
-nan -nan 0
-nan -nan 0
-nan -nan 0
-nan -nan 0
-nan -nan 0
-nan -nan 0
-nan -nan 0
-nan -nan 0
-nan -nan 0
-nan -nan 0
-nan -nan 0
-nan -nan 0
-nan -nan 0
-nan -nan 0
-nan -nan 0
-nan -nan 0
-nan -nan 0
-nan -nan 0
-nan -nan 0
-nan -nan 0
-nan -nan 0
-nan -nan 0
-nan -nan 0
-nan -nan 0
-nan -nan 0
-nan -nan 0
-nan -nan 0
-nan -nan 0
-nan -nan 0
-nan -nan 0
-nan -nan 0
-nan -nan 0
-nan -nan 0
-nan -nan 0
-nan -nan 0
-nan -nan 0
-nan -nan 0
-nan -nan 0
-nan -nan 0
-nan -nan 0
-nan -nan 0
-nan -nan 0
-nan -nan 0
-nan -nan 0
-nan -nan 0
-nan -nan 0
-nan -nan 0
-nan -nan 0
-nan -nan 0
-nan -nan 0
-nan -nan 0
-nan -nan 0
-nan -nan 0
-nan -nan 0
-nan -nan 0
-nan -nan 0
-nan -nan 0
-nan -nan 0
-nan -nan 0
-nan -nan 0
-nan -nan 0
-nan -nan 0
-nan -nan 0
-nan -nan 0
-nan -nan 0
-nan -nan 0
-nan -nan 0
-nan -nan 0
-nan -nan 0
-nan -nan 0
-nan -nan 0
-nan -nan 0
-nan -nan 0
-nan -nan 0
-nan -nan 0
-nan -nan 0
-nan -nan 0
-nan -nan 0
-nan -nan 0
-nan -nan 0
-nan -nan 0
-nan -nan 0
-nan -nan 0
-nan -nan 0
-nan -nan 0
-nan -nan 0
-nan -nan 0
-nan -nan 0
-nan -nan 0
-nan -nan 0
-nan -nan 0
-nan -nan 0
-nan -nan 0
-nan -nan 0
-nan -nan 0
-nan -nan 0
-nan -nan 0
-nan -nan 0
-nan -nan 0
-nan -nan 0
-nan -nan 0
-nan -nan 0
-nan -nan 0
-nan -nan 0
-nan -nan 0
-nan -nan 0
-nan -nan 0
-nan -nan 0
-nan -nan 0
-nan -nan 0
-nan -nan 0
-nan -nan 0
-nan -nan 0
-nan -nan 0
-nan -nan 0
-nan -nan 0
-nan -nan 0
-nan -nan 0
-nan -nan 0
-nan -nan 0
-nan -nan 0
-nan -nan 0
-nan -nan 0
-nan -nan 0
-nan -nan 0
-nan -nan 0
-nan -nan 0
-nan -nan 0
-nan -nan 0
-nan -nan 0
-nan -nan 0
-nan -nan 0
-nan -nan 0
-nan -nan 0
-nan -nan 0
-nan -nan 0
-nan -nan 0
-nan -nan 0
-nan -nan 0
-nan -nan 0
-nan -nan 0
-nan -nan 0
-nan -nan 0
-nan -nan 0
-nan -nan 0
-nan -nan 0
-nan -nan 0
-nan -nan 0
-nan -nan 0
-nan -nan 0
-nan -nan 0
-nan -nan 0
-nan -nan 0
-nan -nan 0
-nan -nan 0
-nan -nan 0
-nan -nan 0
-nan -nan 0
-nan -nan 0
-nan -nan 0
-nan -nan 0
-nan -nan 0
-nan -nan 0
-nan -nan 0
-nan -nan 0
-nan -nan 0
-nan -nan 0
-nan -nan 0
-nan -nan 0
-nan -nan 0
-nan -nan 0
-nan -nan 0
-nan -nan 0
-nan -nan 0
-nan -nan 0
-nan -nan 0
-nan -nan 0
-nan -nan 0
-nan -nan 0
-nan -nan 0
-nan -nan 0
-nan -nan 0
-nan -nan 0
-nan -nan 0
-nan -nan 0
-nan -nan 0
-nan -nan 0
-nan -nan 0
-nan -nan 0
-nan -nan 0
-nan -nan 0
-nan -nan 0
-nan -nan 0
-nan -nan 0
-nan -nan 0
-nan -nan 0
-nan -nan 0
-nan -nan 0
-nan -nan 0
-nan -nan 0
-nan -nan 0
-nan -nan 0
-nan -nan 0
-nan -nan 0
-nan -nan 0
-nan -nan 0
-nan -nan 0
-nan -nan 0
-nan -nan 0
-nan -nan 0
-nan -nan 0
-nan -nan 0
-nan -nan 0
-nan -nan 0
-nan -nan 0
-nan -nan 0
-nan -nan 0
-nan -nan 0
-nan -nan 0
-nan -nan 0
-nan -nan 0
-nan -nan 0
-nan -nan 0
-nan -nan 0
-nan -nan 0
-nan -nan 0
-nan -nan 0
-nan -nan 0
-nan -nan 0
-nan -nan 0
-nan -nan 0
-nan -nan 0
-nan -nan 0
-nan -nan 0
-nan -nan 0
-nan -nan 0
-nan -nan 0
-nan -nan 0
-nan -nan 0
-nan -nan 0
-nan -nan 0
-nan -nan 0
-nan -nan 0
-nan -nan 0
-nan -nan 0
-nan -nan 0
-nan -nan 0
-nan -nan 0
-nan -nan 0
-nan -nan 0
-nan -nan 0
-nan -nan 0
-nan -nan 0
-nan -nan 0
-nan -nan 0
-nan -nan 0
-nan -nan 0
-nan -nan 0
-nan -nan 0
-nan -nan 0
-nan -nan 0
-nan -nan 0
-nan -nan 0
-nan -nan 0
-nan -nan 0
-nan -nan 0
-nan -nan 0
-nan -nan 0
-nan -nan 0
-nan -nan 0
-nan -nan 0
-nan -nan 0
-nan -nan 0
-nan -nan 0
-nan -nan 0
-nan -nan 0
-nan -nan 0
-nan -nan 0
-nan -nan 0
-nan -nan 0
-nan -nan 0
-nan -nan 0
-nan -nan 0
-nan -nan 0
-nan -nan 0
-nan -nan 0
-nan -nan 0
-nan -nan 0
-nan -nan 0
-nan -nan 0
-nan -nan 0
-nan -nan 0
-nan -nan 0
-nan -nan 0
-nan -nan 0
-nan -nan 0
-nan -nan 0
-nan -nan 0
-nan -nan 0
-nan -nan 0
-nan -nan 0
-nan -nan 0
-nan -nan 0
-nan -nan 0
-nan -nan 0
-nan -nan 0
-nan -nan 0
-nan -nan 0
-nan -nan 0
-nan -nan 0
-nan -nan 0
-nan -nan 0
-nan -nan 0
-nan -nan 0
-nan -nan 0
-nan -nan 0
-nan -nan 0
-nan -nan 0
-nan -nan 0
-nan -nan 0
-nan -nan 0
-nan -nan 0
-nan -nan 0
-nan -nan 0
-nan -nan 0
-nan -nan 0
-nan -nan 0
-nan -nan 0
-nan -nan 0
-nan -nan 0
-nan -nan 0
-nan -nan 0
-nan -nan 0
-nan -nan 0
-nan -nan 0
-nan -nan 0
-nan -nan 0
-nan -nan 0
-nan -nan 0
-nan -nan 0
-nan -nan 0
-nan -nan 0
-nan -nan 0
-nan -nan 0
-nan -nan 0
-nan -nan 0
-nan -nan 0
-nan -nan 0
-nan -nan 0
-nan -nan 0
-nan -nan 0
-nan -nan 0
-nan -nan 0
-nan -nan 0
-nan -nan 0
-nan -nan 0
-nan -nan 0
-nan -nan 0
-nan -nan 0
-nan -nan 0
-nan -nan 0
-nan -nan 0
-nan -nan 0
-nan -nan 0
-nan -nan 0
-nan -nan 0
-nan -nan 0
-nan -nan 0
-nan -nan 0
-nan -nan 0
-nan -nan 0
-nan -nan 0
-nan -nan 0
-nan -nan 0
-nan -nan 0
-nan -nan 0
-nan -nan 0
-nan -nan 0
-nan -nan 0
-nan -nan 0
-nan -nan 0
-nan -nan 0
-nan -nan 0
-nan -nan 0
-nan -nan 0
-nan -nan 0
-nan -nan 0
-nan -nan 0
-nan -nan 0
-nan -nan 0
-nan -nan 0
-nan -nan 0
-nan -nan 0
-nan -nan 0
-nan -nan 0
-nan -nan 0
-nan -nan 0
-nan -nan 0
-nan -nan 0
-nan -nan 0
-nan -nan 0
-nan -nan 0
-nan -nan 0
-nan -nan 0
-nan -nan 0
-nan -nan 0
-nan -nan 0
-nan -nan 0
-nan -nan 0
-nan -nan 0
-nan -nan 0
-nan -nan 0
-nan -nan 0
-nan -nan 0
-nan -nan 0
-nan -nan 0
-nan -nan 0
-nan -nan 0
-nan -nan 0
-nan -nan 0
-nan -nan 0
-nan -nan 0
-nan -nan 0
-nan -nan 0
-nan -nan 0
-nan -nan 0
-nan -nan 0
-nan -nan 0
-nan -nan 0
-nan -nan 0
-nan -nan 0
-nan -nan 0
-nan -nan 0
-nan -nan 0
-nan -nan 0
-nan -nan 0
-nan -nan 0
-nan -nan 0
-nan -nan 0
-nan -nan 0
-nan -nan 0
-nan -nan 0
-nan -nan 0
-nan -nan 0
-nan -nan 0
-nan -nan 0
-nan -nan 0
-nan -nan 0
-nan -nan 0
-nan -nan 0
-nan -nan 0
-nan -nan 0
-nan -nan 0
-nan -nan 0
-nan -nan 0
-nan -nan 0
-nan -nan 0
-nan -nan 0
-nan -nan 0
-nan -nan 0
-nan -nan 0
-nan -nan 0
-nan -nan 0
-nan -nan 0
-nan -nan 0
-nan -nan 0
-nan -nan 0
-nan -nan 0
-nan -nan 0
-nan -nan 0
-nan -nan 0
-nan -nan 0
-nan -nan 0
-nan -nan 0
-nan -nan 0
-nan -nan 0
-nan -nan 0
-nan -nan 0
-nan -nan 0
-nan -nan 0
-nan -nan 0
-nan -nan 0
-nan -nan 0
-nan -nan 0
-nan -nan 0
-nan -nan 0
-nan -nan 0
-nan -nan 0
-nan -nan 0
-nan -nan 0
-nan -nan 0
-nan -nan 0
-nan -nan 0
-nan -nan 0
-nan -nan 0
-nan -nan 0
-nan -nan 0
-nan -nan 0
-nan -nan 0
-nan -nan 0
-nan -nan 0
-nan -nan 0
-nan -nan 0
-nan -nan 0
-nan -nan 0
-nan -nan 0
-nan -nan 0
-nan -nan 0
-nan -nan 0
-nan -nan 0
-nan -nan 0
-nan -nan 0
-nan -nan 0
-nan -nan 0
-nan -nan 0
-nan -nan 0
-nan -nan 0
-nan -nan 0
-nan -nan 0
-nan -nan 0
-nan -nan 0
-nan -nan 0
-nan -nan 0
-nan -nan 0
-nan -nan 0
-nan -nan 0
-nan -nan 0
-nan -nan 0
-nan -nan 0
-nan -nan 0
-nan -nan 0
-nan -nan 0
-nan -nan 0
-nan -nan 0
-nan -nan 0
-nan -nan 0
-nan -nan 0
-nan -nan 0
-nan -nan 0
-nan -nan 0
-nan -nan 0
-nan -nan 0
-nan -nan 0
-nan -nan 0
-nan -nan 0
-nan -nan 0
-nan -nan 0
-nan -nan 0
-nan -nan 0
-nan -nan 0
-nan -nan 0
-nan -nan 0
-nan -nan 0
-nan -nan 0
-nan -nan 0
-nan -nan 0
-nan -nan 0
-nan -nan 0
-nan -nan 0
-nan -nan 0
-nan -nan 0
-nan -nan 0
-nan -nan 0
-nan -nan 0
-nan -nan 0
-nan -nan 0
-nan -nan 0
-nan -nan 0
-nan -nan 0
-nan -nan 0
-nan -nan 0
-nan -nan 0
-nan -nan 0
-nan -nan 0
-nan -nan 0
-nan -nan 0
-nan -nan 0
-nan -nan 0
-nan -nan 0
-nan -nan 0
-nan -nan 0
-nan -nan 0
-nan -nan 0
-nan -nan 0
-nan -nan 0
-nan -nan 0
-nan -nan 0
-nan -nan 0
-nan -nan 0
-nan -nan 0
-nan -nan 0
-nan -nan 0
-nan -nan 0
-nan -nan 0
-nan -nan 0
-nan -nan 0
-nan -nan 0
-nan -nan 0
-nan -nan 0
-nan -nan 0
-nan -nan 0
-nan -nan 0
-nan -nan 0
-nan -nan 0
-nan -nan 0
-nan -nan 0
-nan -nan 0
-nan -nan 0
-nan -nan 0
-nan -nan 0
      </DataArray> 
      <DataArray type="Float64" NumberOfComponents="3" Name="MeshDisp" format="ascii">
0 0 0
0 0 0
0 0 0
1 0 0
1 0 0
0 0 0
0 0 0
0 0 0
0 0 0
0 0 0
0 0 0
0 0 0
0 0 0
0 0 0
0 0 0
0 0 0
0 0 0
0 0 0
0 0 0
0 0 0
0.0889920890403578 0 0
0.1169626166198954 0 0
0.1405920529441818 0 0
0.1627918610368206 0 0
0.1841141756584734 0 0
0.2048825887620159 0 0
0.2252582539120857 0 0
0.2453629397996728 0 0
0.2652723825968412 0 0
0.2850372886105478 0 0
0.3046937322015691 0 0
0.3242676889266635 0 0
0.3437781065225251 0 0
0.363239584234578 0 0
0.3826627294205582 0 0
0.4020555976445824 0 0
0.4214245570510385 0 0
0.440774532965553 0 0
0.4601093855222563 0 0
0.4794321418969192 0 0
0.4987452044926924 0 0
0.518050475478355 0 0
0.5373494755036009 0 0
0.5566434166647741 0 0
0.5759332730648716 0 0
0.5952198251806 0 0
0.6145037027104578 0 0
0.6337854121691049 0 0
0.6530653634101102 0 0
0.6723438872135867 0 0
0.69162125185421 0 0
0.7108976744540003 0 0
0.7301733314333609 0 0
0.7494483659053036 0 0
0.768722894024109 0 0
0.7879970102764494 0 0
0.8072707941947689 0 0
0.8265443088036241 0 0
0.8458176037092053 0 0
0.8650907234044281 0 0
0.8843637024973032 0 0
0.9036365697032447 0 0
0.9229093496497004 0 0
0.9421820662636096 0 0
0.9614547360437534 0 0
0.9807273758051093 0 0
1 0 0
0.9999999999999999 0 0
1 0 0
1 0 0
1 0 0
1 0 0
1 0 0
1 0 0
1 0 0
0.9999999999999999 0 0
1 0 0
1 0 0
1 0 0
1 0 0
0.9808097546031873 0 0
0.9616195235919066 0 0
0.9424293220951306 0 0
0.9232391669808727 0 0
0.90404907609542 0 0
0.8848590698107247 0 0
0.8656691738340402 0 0
0.846479413701631 0 0
0.8272898294224432 0 0
0.8081004578095003 0 0
0.788911350543452 0 0
0.7697225726907119 0 0
0.7505341938729143 0 0
0.7313463129209345 0 0
0.7121590343410478 0 0
0.6929725068495322 0 0
0.6737868865741549 0 0
0.6546024041900472 0 0
0.6354192819801173 0 0
0.6162378727680152 0 0
0.597058521956826 0 0
0.5778817468944655 0 0
0.5587081250003019 0 0
0.5395383641763652 0 0
0.5203733605354991 0 0
0.5012142159407438 0 0
0.482062277518485 0 0
0.4629192221983275 0 0
0.443787158371419 0 0
0.4246685139023032 0 0
0.4055663595410363 0 0
0.3864848406587963 0 0
0.3674282086315749 0 0
0.3484026638358353 0 0
0.3294151916647073 0 0
0.3104744886450533 0 0
0.2915912480058315 0 0
0.2727783477925812 0 0
0.2540516379501653 0 0
0.2354296437322445 0 0
0.2169343738900473 0 0
0.1985915751657692 0 0
0.1804270342054803 0 0
0.1624666374546279 0 0
0.1447358891072909 0 0
0.1272723227036724 0 0
0.1101291256095489 0 0
0.09341641204310759 0 0
0.0773306468373065 0 0
0.06219060056002543 0 0
0.04821437837977788 0 0
0.03572293508958784 0 0
0.02488631452627546 0 0
0.01655864109910419 0 0
0.01026918232529602 0 0
0.005918825160610847 0 0
0.003128580132772485 0 0
0.001272741108067608 0 0
0 0 0
0 0 0
0 0 0
0 0 0
0 0 0
0 0 0
0 0 0
0 0 0
0 0 0
0 0 0
0 0 0
0 0 0
0 0 0
0 0 0
0 0 0
0 0 0
0 0 0
0 0 0
0.05637439062198486 0 0
0.06914271444082626 0 0
0.1717230562042947 0 0
0.8379283401403624 0 0
0.7601281664245969 0 0
0.68337920783358 0 0
0.6066470975310049 0 0
0.5309406574365829 0 0
0.4543138575266993 0 0
0.3769439984317871 0 0
0.3010058463545828 0 0
0.0002567854211434339 0 0
0.2353718671017707 0 0
0.7982232400052537 0 0
0.7205349975518612 0 0
0.6434261491676191 0 0
0.5662909254529307 0 0
0.4890935514838447 0 0
0.4117488999810063 0 0
0.3340392700916304 0 0
0.03128552853595213 0 0
0.06597043447871571 0 0
0.9817039714586472 0 0
0.03834844965566761 0 0
0.06328188175450938 0 0
0.04065706320293799 0 0
0.0603629384067223 0 0
0.8760189109032135 0 0
0.04073062269206714 0 0
0.05723300823467199 0 0
0.07633576328879926 0 0
0.07161389488685241 0 0
0.09016808360223988 0 0
0.0846003823692618 0 0
0.1026062627985947 0 0
0.06776109795347166 0 0
0.02018361243249739 0 0
0.2261643578630743 0 0
0.09642592589421178 0 0
0.1141348387098182 0 0
0.8958791158326188 0 0
-0.0002395266317051606 0 0
0.1073623902724913 0 0
0.1249687570281832 0 0
0.0006160432110409061 0 0
-0.0008186444352974796 0 0
0.1320527283487669 0 0
0.1427209892646761 0 0
0.1178897042423339 0 0
0.1006045465283135 0 0
0.98276442709316 0 0
0.1503653683513207 0 0
0.1608541083733725 0 0
0.02287789692270708 -0 0
0.02484463446297789 0 0
0.1688219868911582 0 0
0.17924622269182 0 0
0.1107620673958358 0 0
0.09389874248639958 0 0
0.1707627620794025 0 0
0.1894383184778032 0 0
0.1978081012087824 0 0
0.2079463452471914 0 0
0.2165417106130599 0 0
0.2266005429025848 0 0
0.2353273594240098 0 0
0.2453675110518685 0 0
0.2540242067021873 0 0
0.2642537272010492 0 0
0.2733662754156161 0 0
0.2832761771360512 0 0
0.2924435559253214 0 0
0.3023165405026442 0 0
0.3115580918207225 0 0
0.3213955157736341 0 0
0.3306954368461978 0 0
0.3405024294744022 0 0
0.3496711337415785 0 0
0.3596149392813032 0 0
0.3689122783574791 0 0
0.3787846437231679 0 0
0.3882054340839934 0 0
0.3979713665499642 0 0
0.4074248129934803 0 0
0.4171640550147142 0 0
0.4266350144375123 0 0
0.4363622967013762 0 0
0.4458492641844313 0 0
0.4555668238427112 0 0
0.4650672175193079 0 0
0.47477734970803 0 0
0.4842885731873241 0 0
0.4939940247330468 0 0
0.5035127226966257 0 0
0.5132133167423276 0 0
0.5227388686971725 0 0
0.5324348850870398 0 0
0.5419664413884865 0 0
0.5516591341381065 0 0
0.5611953365762863 0 0
0.5708861485101541 0 0