<?xml version="1.0"?>
<VTKFile type="UnstructuredGrid">
  <UnstructuredGrid>
  <Piece NumberOfPoints="1224"  NumberOfCells="2290">
    <Points>
      <DataArray type="Float64" NumberOfComponents="3" format="ascii">
0 0 0
0.6 0 0
0.6 0.2 0
3 0.2 0
3 1 0
0 1 0
0.05454545454535233 0 0
0.1090909090906768 0 0
0.1636363636359771 0 0
0.2181818181812728 0 0
0.2727272727265793 0 0
0.3272727272720317 0 0
0.3818181818176247 0 0
0.4363636363632168 0 0
0.4909090909088285 0 0
0.5454545454544089 0 0
0.6 0.03999999999991203 0
0.6 0.07999999999979179 0
0.6 0.1199999999997886 0
0.6 0.1599999999998948 0
0.6510638297871261 0.2 0
0.7021276595742618 0.2 0
0.7531914893613819 0.2 0
0.8042553191485237 0.2 0
0.8553191489356438 0.2 0
0.9063829787228289 0.2 0
0.957446808509926 0.2 0
1.008510638297009 0.2 0
1.059574468084092 0.2 0
1.110638297871174 0.2 0
1.161702127658257 0.2 0
1.21276595744534 0.2 0
1.263829787232422 0.2 0
1.314893617019505 0.2 0
1.365957446806588 0.2 0
1.417021276593671 0.2 0
1.468085106380754 0.2 0
1.519148936167923 0.2 0
1.570212765955006 0.2 0
1.621276595742088 0.2 0
1.672340425529171 0.2 0
1.723404255316254 0.2 0
1.774468085103337 0.2 0
1.825531914890624 0.2 0
1.876595744677951 0.2 0
1.927659574465349 0.2 0
1.978723404252714 0.2 0
2.029787234040074 0.2 0
2.080851063827477 0.2 0
2.131914893614798 0.2 0
2.182978723402204 0.2 0
2.234042553189523 0.2 0
2.285106382976928 0.2 0
2.336170212764247 0.2 0
2.387234042551653 0.2 0
2.438297872338975 0.2 0
2.489361702126377 0.2 0
2.540425531913739 0.2 0
2.591489361701102 0.2 0
2.642553191488421 0.2 0
2.693617021275827 0.2 0
2.744680851063146 0.2 0
2.795744680850551 0.2 0
2.84680851063787 0.2 0
2.897872340425276 0.2 0
2.948936170212618 0.2 0
3 0.2533333333332341 0
3 0.3066666666664725 0
3 0.3599999999996274 0
3 0.413333333332804 0
3 0.4666666666659806 0
3 0.5199999999991571 0
3 0.5733333333323336 0
3 0.6266666666656895 0
3 0.6799999999991551 0
3 0.7333333333326146 0
3 0.7866666666660802 0
3 0.8399999999995775 0
3 0.8933333333330373 0
3 0.9466666666664969 0
2.949152542373491 1 0
2.898305084746983 1 0
2.847457627120474 1 0
2.796610169493702 1 0
2.745762711866469 1 0
2.694915254239208 1 0
2.644067796611963 1 0
2.593220338985156 1 0
2.542372881358647 1 0
2.491525423732018 1 0
2.44067796610481 1 0
2.389830508477549 1 0
2.338983050850287 1 0
2.288135593223026 1 0
2.237288135595765 1 0
2.186440677968504 1 0
2.135593220341243 1 0
2.084745762713982 1 0
2.033898305086721 1 0
1.983050847459614 1 0
1.932203389832729 1 0
1.881355932205844 1 0
1.830508474578958 1 0
1.779661016952073 1 0
1.728813559325189 1 0
1.677966101698303 1 0
1.627118644071418 1 0
1.576271186444533 1 0
1.525423728817648 1 0
1.474576271190575 1 0
1.423728813563314 1 0
1.372881355936053 1 0
1.322033898308791 1 0
1.27118644068153 1 0
1.220338983054269 1 0
1.169491525427008 1 0
1.118644067799747 1 0
1.067796610172485 1 0
1.016949152545224 1 0
0.9661016949179628 1 0
0.9152542372907018 1 0
0.8644067796634407 1 0
0.8135593220361792 1 0
0.7627118644089181 1 0
0.7118644067816566 1 0
0.661016949154396 1 0
0.6101694915271345 1 0
0.5593220338998739 1 0
0.5084745762726124 1 0
0.4576271186453518 1 0
0.4067796610180903 1 0
0.3559322033908292 1 0
0.3050847457635677 1 0
0.2542372881363066 1 0
0.2033898305090456 1 0
0.1525423728817841 1 0
0.101694915254523 1 0
0.05084745762726151 1 0
0 0.9473684210524125 0
0 0.8947368421048248 0
0 0.8421052631576025 0
0 0.7894736842105994 0
0 0.7368421052635962 0
0 0.6842105263165927 0
0 0.6315789473695894 0
0 0.5789473684225861 0
0 0.5263157894755828 0
0 0.4736842105282874 0
0 0.4210526315806998 0
0 0.3684210526331123 0
0 0.3157894736855248 0
0 0.2631578947379374 0
0 0.21052631579035 0
0 0.1578947368427625 0
0 0.1052631578951749 0
0 0.05263157894758741 0
0.4374856279758046 0.955462795473483 0
0.625531914893563 0.2394317949808221 0
0.7891616249544176 0.9557759867023439 0
2.570562443351098 0.9559758769411787 0
2.364406779663917 0.9559648099769389 0
2.161016949154874 0.9559648099769389 0
1.957627118646171 0.9559648099772646 0
1.756856606547665 0.9560078743553572 0
1.553415402058453 0.9561420672712786 0
1.347457627122422 0.95627738856474 0
1.144067796613377 0.9563034567995272 0
0.04146670856173688 0.5498854761242812 0
0.9828861012149002 0.2442383967812095 0
2.465390809289578 0.2421522008426663 0
2.259572257543314 0.243586373321511 0
2.055319178697841 0.24363095694403 0
1.851066099915384 0.2436741865527954 0
1.646810778591931 0.2437170671454607 0
1.442550972205278 0.2437587738062726 0
1.238275543433999 0.2442249255777628 0
0.5808319854219957 0.2417757800606361 0
0.6039807146029165 0.2785115072887754 0
2.951522810440164 0.5995349944823752 0
0.5591131416216563 0.2791940688436214 0
0.5817690965011905 0.3180386921514113 0
0.5363223429032008 0.3181181454258206 0
0.5590799034518541 0.3577335228902347 0
2.671507320584846 0.2416532643303031 0
0.5129751095268966 0.3576683284772433 0
0.5360042291720796 0.3976917483469583 0
0.5824744072527975 0.3977458985417416 0
0.5593202208963615 0.4382323507424581 0
0.6062221806132498 0.4382172989803606 0
0.5831398502988122 0.4790536480492864 0
0.630245509211025 0.4792447281197085 0
0.5373735766893435 0.4817209888486334 0
0.2780994584865757 0.9660670791366374 0
0.9407829849899363 0.9559852449915113 0
0.6069171020766708 0.5203953730037822 0
0.6544691944766102 0.5205851219036783 0
2.724115018794794 0.9563165682871465 0
0.04341732373162228 0.2894490564426765 0
0.6304562046384772 0.5622881188475496 0
0.6786259291441818 0.5621981517123112 0
0.03938236249337418 0.7091098825652095 0
0.2999999999993055 0.04723774929726795 0
0.7024556039582556 0.5200372393771872 0
0.726826368578132 0.562505099575485 0
0.6545296629344706 0.6041261864689124 0
0.6061411599039735 0.6041581669226386 0
2.954333097254252 0.4393531299125908 0
0.7512905139641642 0.5199435586712576 0
0.7757938242112172 0.5624873891767795 0
0.4902278874550028 0.3174350849704655 0
0.4661669324669476 0.3576870257641042 0
0.8003371868304782 0.5195844107098163 0
0.8251782158071723 0.5621174250913318 0
0.6300572939290072 0.6460588488486728 0
0.581677101888915 0.6462390077748084 0
0.7994632498085218 0.6067218912904607 0
0.850068894442807 0.6047738158182728 0
0.8747482025846163 0.5617915498272615 0
0.8998102571129438 0.6045430073239006 0
0.924588798996443 0.5614360364847856 0
0.9497125983499418 0.6046345614192383 0
0.9744389394813738 0.5613114208485291 0
0.9997656958801404 0.604758732930365 0
1.024028015453996 0.5597386087889248 0
1.050046148741532 0.6042836632406788 0
1.075213347289947 0.5607219500906248 0
1.100604808237692 0.6043040651294929 0
1.125727120818654 0.5598592244124957 0
1.151165990249003 0.6040638744783449 0
1.176319565514503 0.5595216793632644 0
1.201793840633129 0.6038781229769293 0
1.226960854257978 0.5600604284234054 0
1.252470704079807 0.6038664424080111 0
1.277198987313166 0.55874807111347 0
1.303148970446812 0.6035341865995129 0
1.328130525802366 0.5586520846649797 0
1.353966012915828 0.6034054551655909 0
1.379205474149696 0.558835304845746 0
1.404820923589671 0.6032503772964327 0
1.430092956912838 0.5587079795953892 0
1.455686300628245 0.6030926920218221 0
1.480963489515269 0.5580480170404921 0
1.506562983627252 0.6028436706904448 0
1.531847734917255 0.5577680566445021 0
1.557453558526421 0.6026435181305781 0
1.582745756648754 0.5575726351194972 0
1.608358176126191 0.6024617369905624 0
1.633656322435163 0.5573842056888257 0
1.659277805706528 0.6022873884346892 0
1.684577462424181 0.5572075399874397 0
1.710203504633815 0.6021111834258887 0
1.735506494091908 0.5570246051384745 0
1.761134606493805 0.6019307913070558 0
1.786441498808711 0.5568475628142857 0
1.812072359676459 0.6017522495250318 0
1.837381834584306 0.5566653603575672 0
1.863017119880456 0.601574020443024 0
1.888326681794851 0.5564884669211013 0
1.913963858781491 0.601395113412113 0
1.939274704592935 0.5563067813822595 0
1.964908406083961 0.6012129143420911 0
1.990224566339525 0.5561292537946573 0
2.015859329864652 0.601032757987411 0
2.041177190815608 0.5559477304122714 0
2.066818109147928 0.600855564813206 0
2.09213259478423 0.5557710179709322 0
2.117774443326183 0.6006760179252703 0
2.143088896138059 0.5555900146741853 0
2.168729305797513 0.6004921726308964 0
2.194045774061603 0.5554125217101814 0
2.219686577151481 0.6003111949874665 0
2.245003702950199 0.5552312296013228 0
2.270641766736839 0.6001298880828497 0
2.295962173634055 0.5550546947866846 0
2.321601310982481 0.599950595338254 0
2.346923922781879 0.5548708301001631 0
2.372568004594504 0.5997713467128002 0
2.397895756972162 0.5547000681173012 0
2.423546697517365 0.5996004731097838 0
2.448884659670238 0.5545095609010697 0
2.474538141419978 0.5994220729206983 0
2.499902931415869 0.5543494429014709 0
2.525546234724433 0.5993228147833797 0
2.550973655834774 0.5541346321759457 0
2.576685338327378 0.5992395038842441 0
2.602182482443039 0.5540180644105763 0
2.958944511946492 0.7598964409357507 0
2.628014314012249 0.5990918128353608 0
0.4429170888396284 0.3159793431387367 0
0.4184631156771032 0.357715436029677 0
0.3946070818022522 0.3157219358498637 0
0.3697276561976696 0.3576135465858128 0
2.449044355814981 0.643990885448769 0
2.24531935830005 0.6444881680698032 0
1.024857369602972 0.6487487015028032 0
2.041498164113345 0.6452136474256573 0
1.837701628146142 0.6459229900926835 0
0.3455853078837237 0.3150377509381005 0
0.3204780172155196 0.3574251905568473 0
0.3449438693484468 0.4002519798591844 0
1.633970683060678 0.6466170330762969 0
1.227333380683899 0.6479317947648683 0
1.430444030483603 0.6473399689389928 0
0.875196942148915 0.6483605753517908 0
0.6057010339261732 0.6883083412871458 0
0.5571396249147901 0.6885103796531055 0
2.653543252321963 0.5527758280498023 0
1.099471497978971 0.5148848291986879 0
2.602427017093663 0.6438096025956825 0
2.653851606946175 0.6437140715169269 0
1.353138019780104 0.5138574114565649 0
1.556762689169365 0.5115839513085039 0
1.760509743411542 0.5109012431757174 0
1.964341412665395 0.510388685431229 0
0.2953909602266698 0.4001745965167012 0
[...]
    <PointData>
      <DataArray type="Float64" NumberOfComponents="3" Name="Velocity" format="ascii">
3.000000130111794 0 0
0 0 0
0 0 0
3.241139082391082 0 0
3.240861445427386 0 0
3.000000000228384 0 0
2.999999779846893 0 0
2.99999922530797 0 0
3.000017264135799 0 0
3.00013668858223 0 0
2.998378740656355 0 0
2.958494001645557 0 0
2.646927240125251 0 0
1.757626077979933 0 0
0.7238677788487432 0 0
0.1778180301882823 0 0
0 0.1297253535208869 0
0 0.2416472190899018 0
0 0.377616049901792 0
0 0.5434751488066809 0
1.369138348908379 0 0
1.902086716274857 0 0
2.192290896604181 0 0
2.412003943136352 0 0
2.569256164388776 0 0
2.703230739570566 0 0
2.799548022924666 0 0
2.869487860945525 0 0
2.918183759717487 0 0
2.950456064550747 0 0
2.970472671866779 0 0
2.983460979942411 0 0
2.991557963051866 0 0
2.995631470045476 0 0
2.997778195028148 0 0
2.998991708965491 0 0
2.999565355407821 0 0
2.999834752735161 0 0
2.999949179125521 0 0
2.999988321099963 0 0
2.999999288438439 0 0
3.000000690233297 0 0
3.000000327017764 0 0
3.000000028733165 0 0
2.999999976320006 0 0
2.999999995131013 0 0
3.000000001530857 0 0
2.999999999831828 0 0
2.999999999988262 0 0
3.000000000041016 0 0
3.000000000032846 0 0
2.999999999848051 0 0
3.000000000054843 0 0
3.000000000297804 0 0
2.999999999513104 0 0
3.000000000268208 0 0
3.000000000344513 0 0
3.000000005585358 0 0
2.999999935999212 0 0
2.999999572224137 0 0
3.000000272926267 0 0
3.000020447459683 0 0
3.00021754659819 0 0
3.001466292602794 0 0
3.00909478276783 0 0
3.058188286270819 0 0
3.242061264354821 0.001763126105317251 0
3.231936111614604 0.001216487108438289 0
3.233441463551538 0.001008177827052677 0
3.233778649049051 0.0001034288655791772 0
3.236689174407585 -0.0004686521588826855 0
3.23857258349361 -0.0007047279910848961 0
3.236025474192826 -0.0003825875681875625 0
3.234989078351135 -0.0005068069906951578 0
3.238647166968406 -7.356361563047212e-05 0
3.236697473863122 -4.378484168384927e-05 0
3.237473916185679 -0.0003259602341268722 0
3.233855880952821 -0.00078775698445279 0
3.231049835191691 -0.001846609682799272 0
3.24190602678735 -0.001356777320445937 0
3.053408478190144 0 0
3.009635445527307 0 0
3.001519886827149 0 0
3.000213855364169 0 0
3.000023635644237 0 0
3.000001156212765 0 0
2.999999724597943 0 0
2.999999924083398 0 0
3.000000000888202 0 0
3.000000000902086 0 0
3.000000000010491 0 0
2.99999999959184 0 0
3.00000000031121 0 0
3.000000000016485 0 0
2.999999999877499 0 0
3.000000000031774 0 0
3.000000000021139 0 0
2.999999999994259 0 0
2.999999999991313 0 0
3.000000000008162 0 0
2.999999999986609 0 0
3.000000000025743 0 0
2.999999999982664 0 0
2.9999999999502 0 0
3.000000000098468 0 0
3.000000000179173 0 0
2.999999999355024 0 0
2.999999999339886 0 0
3.000000003325237 0 0
3.000000007268281 0 0
3.000000001316833 0 0
2.999999980139743 0 0
2.999999930272703 0 0
2.999999861302568 0 0
2.999999774016699 0 0
2.999999678360373 0 0
2.999999592533475 0 0
2.999999429718579 0 0
2.999999042126364 0 0
2.999999000246369 0 0
2.999999424048903 0 0
2.999999811989899 0 0
3.000000007692718 0 0
3.000000060067074 0 0
3.0000000619444 0 0
3.000000038559178 0 0
3.000000015500456 0 0
3.000000002937095 0 0
2.999999997946296 0 0
2.999999999675471 0 0
3.000000000472413 0 0
2.999999999702102 0 0
3.000000000153799 0 0
2.999999999926223 0 0
3.000000000077876 0 0
3.000000000142907 0 0
3.000000000245733 0 0
3.00000000018471 0 0
2.999999999789897 0 0
3.000000000130567 0 0
2.999999998883342 0 0
3.000000000201025 0 0
2.999999999620466 0 0
3.000000000981977 0 0
3.00000000148209 0 0
3.000000000136058 0 0
2.999999997209875 0 0
2.999999996839423 0 0
3.00000000210693 0 0
3.000000012446431 0 0
3.000000018565907 0 0
3.000000012272122 0 0
3.000000012887909 0 0
3.000000031453348 0 0
3.000000047600055 0 0
3.000000025021921 0 0
2.999999998737485 2.060443674368767e-09 0
1.286310449874613 0.5958331423661153 0
2.999999679222829 9.94821945322918e-07 0
2.999999975103798 2.588494113265829e-09 0
2.999999999879286 -3.7364088193195e-11 0
2.999999999954304 8.557218435794451e-13 0
2.999999999999444 2.951593430621602e-12 0
3.000000000109168 6.869394063625431e-11 0
3.000000004565306 2.382769828957711e-10 0
2.999999895232033 6.552905636601743e-09 0
2.999999536130757 3.903933405604798e-06 0
3.000000000457305 4.724018864702121e-10 0
2.84970223084842 0.05286278022780743 0
2.999999998757367 3.838790003012366e-11 0
3.000000000116978 -3.50477918937973e-11 0
2.999999999801915 -1.092214721338783e-11 0
2.999999985548806 4.952583559394144e-09 0
2.999996695630335 -3.081415669699256e-06 0
2.999461110630998 -9.937031234042847e-05 0
2.98993031032808 0.002890246154910461 0
1.122604448650112 0.8269999847011144 0
1.657011929647199 0.8210145851521136 0
3.071818318929157 -0.0003596105227171682 0
1.638455396489329 0.7990240176732166 0
2.026880959580321 0.7357606243905003 0
2.198714424486248 0.5453556907242704 0
2.450269532424078 0.4627885092965346 0
2.999999818072976 2.774596755936548e-07 0
2.652465181428728 0.2581558852045311 0
2.77537518634645 0.1994760754650171 0
2.649687843205434 0.3524983300988889 0
2.867071018997532 0.1377128886804634 0
2.792159203458823 0.2437355975428823 0
2.926265133592347 0.08713246764997139 0
2.884480853730012 0.1544434460761155 0
2.965056255497534 0.03756885236359832 0
3.000000000102415 -9.688871219708948e-11 0
2.999997193758853 9.133103075287833e-06 0
2.96175326583691 0.05078325679395007 0
2.93977110196044 0.09036383688765813 0
3.000010122034422 -1.395723616023592e-06 0
2.999999997334021 3.481741405339207e-09 0
2.981410370203099 0.02739106775159576 0
2.970414352721338 0.04922355342269951 0
3.000000000070276 1.052560489561338e-10 0
2.990789189516755 0.0006637238176499615 0
2.9208475516784 0.140976159953599 0
2.961124611129712 0.07737441704776848 0
2.991211048118779 0.01426691270041237 0
2.995373787628357 0.006806590353413675 0
3.083149210960082 -0.0002772497625253697 0
2.921802254730526 0.1681745520255669 0
2.960638601023476 0.09711130032029892 0
2.516407376238455 0.2916387890700077 0
2.846978923546852 0.1022811651603058 0
2.934838195322878 0.1721608013971675 0
2.967628568166779 0.1017816608233418 0
2.997834062218853 0.003489017344191833 0
2.999040224247234 0.001424069867102323 0
2.981712350007675 0.05095353447995545 0
2.985087642145131 0.0557811824981673 0
2.977591502145995 0.09763975158866159 0
2.990439724666567 0.05344528289042606 0
2.988024832910061 0.08719766949937198 0
2.995883973269385 0.04709582607192048 0
2.997086084801954 0.07266642808920022 0
3.000351845399042 0.03846218580080728 0
3.003646575339418 0.05694723566933309 0
3.003242738500551 0.0294332385675488 0
3.007068284150879 0.04031681379114208 0
3.004456895694871 0.02055899625254646 0
3.007852386974571 0.02712610308853188 0
3.004376596952185 0.01336719931691867 0
3.006902846235052 0.01671964446531539 0
3.003571579599075 0.008073127185388683 0
3.00515304015544 0.009408417377322131 0
3.002523855674999 0.004467414692351654 0
3.003439000159728 0.004911811154479663 0
3.001576139295344 0.002254037816721971 0
3.00198599994236 0.002266592785422257 0
3.000864407868398 0.00102120320830466 0
3.00100194094558 0.000920751061730688 0
3.000413444198732 0.0004116341705923418 0
3.000443734300417 0.0003282632625385189 0
3.000166111728523 0.0001413312427355855 0
3.000166947015496 9.962477301444626e-05 0
3.000054407584738 4.092158844517877e-05 0
3.000050682169192 2.490887042510312e-05 0
3.00001314644528 9.568813421808895e-06 0
3.000011149437761 4.967243729626102e-06 0
3.000001549029456 1.686914913823788e-06 0
3.000001106169361 8.364798776559484e-07 0
2.999999598891961 2.032099153844833e-07 0
2.999999659181539 1.748934087949391e-07 0
2.999999717640177 4.999455375248431e-09 0
2.999999789577219 4.794021955938836e-08 0
2.999999940612133 -1.342878280890696e-08 0
2.99999995694318 4.865402920894162e-10 0
3.000000003338176 -6.973046768355551e-09 0
3.000000003865248 -6.552860579303895e-09 0
3.0000000038008 -4.636061461621713e-10 0
3.000000001803918 -4.952179074790688e-10 0
2.999999999076979 6.419156491017746e-10 0
2.999999999563631 5.942793764690785e-10 0
3.00000000012538 -2.0514263480731e-10 0
3.000000000027987 -1.777840095948983e-10 0
2.999999999991544 3.395168349024874e-11 0
3.000000000004541 2.893016023731172e-11 0
3.000000000006239 2.153948668595896e-13 0
2.999999999996192 1.670907138329834e-13 0
3.00000000000738 -8.059876141512275e-13 0
2.999999999989593 -5.469182199656629e-12 0
2.99999999998548 1.602738491996095e-12 0
3.000000000046329 1.872929376010036e-12 0
2.999999999955404 -3.045979910257884e-12 0
2.999999999990645 3.402250411880259e-12 0
3.000000000096643 -8.127139902626625e-13 0
2.999999999854652 -1.600276870363281e-12 0
3.000000000086667 8.09348638285148e-12 0
3.000000000100113 -2.778441954085091e-12 0
2.999999999647959 -7.450199131275409e-12 0
3.000000000380869 4.625739710756787e-12 0
3.000000000147743 4.236798718880502e-12 0
2.999999998984586 -1.159141454512996e-13 0
3.000000000773616 -3.033370134110083e-11 0
3.000000002993408 -2.737695923412761e-11 0
2.999999997966523 1.349602003565495e-10 0
2.999999980350315 2.936156824977488e-10 0
2.999999933832798 1.394376858634252e-09 0
2.999999866801375 3.389873283666826e-09 0
3.092376619712653 -0.000114410579815849 0
2.999999886817394 1.322336985824904e-09 0
2.799649575459071 0.1088225759371895 0
2.953040372000228 0.0290716531198145 0
2.945755866329646 0.02695421659302397 0
2.989894658265792 0.005876868474152435 0
2.999999999004811 4.091821553157556e-12 0
2.999999999984302 2.15009054019254e-12 0
3.000869068652608 0.0183763518067867 0
2.99999999999575 -4.482815999671254e-12 0
3.000000005560442 -1.377791634513459e-10 0
2.991688934754821 0.003769648141947297 0
2.999011566216751 0.0005510027731969102 0
2.998498520007773 0.001030268547949422 0
2.99999956760998 2.786157254165812e-07 0
3.001496635951829 0.003377387656807314 0
3.000125579953962 0.0001459823207187082 0
2.993720423359461 0.0280766883298519 0
2.999545125658643 0.0007320761148238651 0
2.99983478225568 0.0002490923763225605 0
3.000000258078299 5.722468370627747e-09 0
3.010620418399194 0.04834590685577082 0
2.999999871100178 1.184628808608063e-09 0
3.000000235228289 -2.36516159093857e-08 0
3.002028552486759 0.001795188533017982 0
3.000040691486212 9.61753642304128e-06 0
2.999999865707191 7.377594759766932e-08 0
2.999999999981298 4.587456854054883e-10 0
2.999950094935505 4.078694379935088e-05 0
2.99982384256047 0.0001433472891918034 0
2.999999999986934 5.858023038685628e-12 0
2.999999999660132 4.06145147180941e-12 0
2.999999931702491 7.27500556786004e-10 0
2.877146817916449 0.269581583931455 0
2.987018804834475 0.1247694208902412 0
2.999999871284496 -3.436350566586656e-09 0
3.000001815337111 -1.017553715559176e-07 0
2.999922469328224 0.0001259618640310585 0
2.999829820917985 0.0003021707485930591 0
2.999977625050925 3.533327215941455e-05 0
2.999953667331964 6.910373664633778e-05 0
2.999995405936668 7.580785263409571e-06 0
2.999990659179131 1.477199098190214e-05 0
2.999999636093495 8.954124158187319e-07 0
2.999999084373891 1.998627408614438e-06 0
3.00000015423075 -9.656155528600159e-08 0
3.000000192411155 -2.321126784511196e-08 0
3.000000076848566 -9.022136111139245e-08 0
3.000000128629866 -1.324521082232014e-07 0
0.1531981788860627 0.442870139056615 0
2.774722952077834 0.0961741667479125 0
3.000000009980416 -1.739792539655516e-08 0
2.999772074047099 9.815368541474431e-05 0
3.0007977122448 0.000109441744868813 0
3.000007029581706 -2.754698851980263e-06 0
2.532574178208943 0.158520120340821 0
3.000000021952948 -3.158633435748615e-08 0
3.000000165257008 -1.589685220188066e-08 0
2.999999875477563 1.938179570276778e-09 0
3.000007365658112 -2.393484035592538e-07 0
3.00002629735066 -1.084543398316613e-06 0
2.105602662406715 0.2595621255398822 0
2.999990695253067 1.562768974605514e-05 0
3.00006757347566 -3.586714989559067e-06 0
2.999999997404126 -5.565695666382623e-10 0
2.999999987030817 4.63589351959934e-09 0
2.99663981499334 0.0009387639810917648 0
3.000045140652174 1.439335909685075e-05 0
3.000000000054438 7.968118718472424e-11 0
3.00000000178258 5.715025187583233e-08 0
2.999999999997609 -2.016195716740567e-12 0
3.000000000052097 -2.157504339127065e-10 0
2.99999992296489 -3.245301489064197e-08 0
3.000011943351548 1.291051772205728e-05 0
2.999999999929025 -3.146958406107172e-12 0
3.000000000374335 -2.946733902450117e-10 0
2.999999999931494 2.050741012094795e-11 0
2.999922743290384 -3.299575526829674e-05 0
3.000000522261579 6.954063050887434e-10 0
2.941341616326632 0.02078553983789818 0
2.99738684969236 0.0002179880809581764 0
3.000570697789633 0.0008744438364068557 0
3.000000000006561 -3.331124018435422e-13 0
2.999999988813449 -5.486293378458734e-08 0
2.999999998988361 -4.167574678954932e-11 0
2.999998535493852 1.09790515013335e-05 0
2.999999727549576 8.515763655313073e-07 0
3.000000000106564 1.908672321176505e-11 0
2.999999999304359 1.98730753627237e-10 0
2.999999999978876 -1.7533632554363e-11 0
2.999999999962006 -8.816237124799838e-11 0
3.002255590001558 0.009312997968910507 0
3.000000000017352 1.87619569517633e-11 0
3.000000002474285 -6.813913691354457e-09 0
3.000000771338231 3.040518804054144e-07 0
3.000409322331498 0.0002019960304671817 0
3.000000000132754 7.59735500008216e-13 0
3.000000000094072 -1.316830788056961e-12 0
3.008523227432983 0.01726905319882306 0
2.999999979691889 -4.386182522284358e-09 0
2.999997841344463 4.171662371743249e-06 0
3.000777235481694 -6.18245823428398e-05 0
2.306400596170946 0.02825447419940016 0
3.000000000939915 6.270043136616753e-12 0
3.00001355137757 -5.100002458148186e-06 0
3.000000036806714 -5.097544750851694e-08 0
2.568433239110496 0.4913779976466224 0
3.000002629382338 -1.336963764470695e-06 0
2.999999996011752 3.164652786951157e-09 0
3.000000214564915 -1.876896080185659e-07 0
3.00000003482642 -4.228597272962565e-08 0
3.000076116052117 -1.889486921774095e-06 0
2.999999872733375 -1.828317626458504e-09 0
2.999999942175288 1.726719566657246e-09 0
2.999999853184015 3.955022475980849e-07 0
3.000000022938785 -4.287748426181985e-08 0
2.999910313094988 0.0001271177622487599 0
3.000221689456193 -8.473886360436885e-06 0
2.999999997517497 2.712456597932605e-09 0
2.998728794075218 0.001055316471257668 0
2.999318197831187 0.000293855553109166 0
3.000101301405087 -6.474810704561242e-06 0
3.000034012637604 -8.436909654752357e-06 0
3.000024662229386 -4.479195629785422e-07 0
3.000209821677663 -1.773304201377913e-06 0
3.08303437853396 0.001423997739174248 0
3.067110775233463 -0.001264153642737937 0
2.999843027061513 0.0001525644883889514 0
3.000000000650148 -5.792169212881929e-10 0
2.907227488544879 0.2523742439316419 0
2.832085738690763 0.35651053338067 0
2.880647332503087 0.3082246347166568 0
3.000085661990714 -3.175318379555284e-06 0
2.996336879091596 0.006532297939642929 0
1.259490044861922 0.7706127251564344 0
2.999141645313177 0.0008432204817877883 0
3.000002096053648 -9.697442262807022e-07 0
3.000000162672471 -1.096723426975657e-07 0
3.000000379172641 -2.084897256761705e-07 0
3.00002053979674 -5.396184793064515e-06 0
3.00000000047197 -9.340847419054399e-10 0
2.799007714617977 0.3792516243168031 0
2.857631341682739 0.3079561115664553 0
2.717550235710691 0.4558245306567915 0
3.000661317994954 -2.461235687274184e-05 0
3.000252573444904 -3.375047000055978e-06 0
2.999999999774309 1.46140913633043e-10 0
3.000000000405779 4.189172724408694e-10 0
2.999999880657746 5.837875890742077e-10 0
2.999999986199775 1.224750843687636e-09 0
2.999999999626443 8.243370965350931e-11 0
3.000000002713847 -1.416631146648242e-10 0
3.000000000197875 -1.460401183490635e-11 0
2.999999999158338 4.433617158758243e-11 0
3.000000000355863 -1.441873753208086e-11 0
3.000000000178302 -1.362156303019086e-12 0
2.999999999640043 -3.645720178052713e-12 0
3.00000000018948 1.989415971511331e-11 0
3.000000000035054 -1.688805782169009e-12 0
2.999999999870866 -2.165986839583797e-11 0
3.000000000119644 1.535676546759392e-11 0
2.999999999984424 -1.743249152004885e-11 0
2.999999999947328 5.935137507240248e-12 0
3.000000000029083 2.36800526681505e-11 0
2.999999999993486 -2.117068908147346e-11 0
2.999999999995165 2.086218581544044e-13 0
3.000000000009081 8.693969635438681e-12 0
2.999999999999614 -1.161396296382606e-11 0
2.999999999999526 6.146774409668561e-12 0
3.000000000003959 8.137832986467215e-12 0
2.999999999998028 -1.098039938306773e-11 0
2.999999999995555 -7.813820411954565e-12 0
2.999999999977792 1.18097433807924e-11 0
2.999999999963166 1.330692514960852e-11 0
3.000000000151834 1.736534890274949e-11 0
3.000000000182528 3.879740490019617e-11 0
2.999999999587468 -2.946087451232041e-10 0
2.999999999696744 -3.60601671975573e-10 0
2.999999999668468 1.204560474830906e-09 0
2.999999999093997 8.22589379379018e-10 0
3.000000006741462 2.20136195208391e-09 0
3.00000000427376 3.527132742758545e-09 0
3.000000007509081 -1.102970377243538e-08 0
3.000000011825564 -3.413536048889664e-09 0
2.999999967003138 -5.940431080405804e-08 0
2.999999995429781 -3.891464424273356e-08 0
2.999999830459069 -1.576504316585661e-07 0
2.999999920049032 -1.251930888021258e-07 0
2.999999545851345 -1.939701428208383e-07 0
2.999999740881032 -2.127257492816737e-07 0
2.999999397668469 4.530323462791177e-07 0
2.999999572270891 6.719079657433741e-08 0
3.000000270937279 3.763338744813171e-06 0
2.999999797741505 1.780334049782569e-06 0
3.000004162718349 1.466113556477248e-05 0
3.000001183585083 7.588555545270814e-06 0
3.000014123470302 4.289563750150566e-05 0
3.000004688718316 2.210018154742327e-05 0
3.00003292335232 0.0001039734452719643 0
3.00001084604557 5.195340545110068e-05 0
3.000060593229129 0.0002180078840731853 0
3.000018908438293 0.0001041575218309119 0
3.000091583925561 0.0004032226412309581 0
3.000026918189355 0.0001852272217489491 0
3.000114632876768 0.0006731893705587617 0
3.000030605754556 0.0003031953405060064 0
3.000110720293035 0.001037585224290952 0
3.00001965633462 0.0004566568221396349 0
3.000050630172078 0.001463298081353245 0
2.999982968757553 0.0006158102063493182 0
2.999916088229373 0.001854179470672469 0
2.999921179580438 0.0007289127928467124 0
2.999728447362236 0.002091252282047227 0
2.999858992644789 0.000718929656324723 0
2.999561151740849 0.001993962522051764 0
2.999850800915046 0.0005080513002248228 0
2.999558462438471 0.00138649881872006 0
2.999891438069118 0.0003029825459829392 0
2.99968049098148 0.0008267001598528932 0
2.999932463486338 0.0001697680777220247 0
3.000075814245998 -1.690507107625889e-06 0
3.000584153026424 -7.38073724662716e-06 0
3.000000313887394 -2.279658104172393e-07 0
3.000000043012564 -4.687039128063272e-08 0
2.99997414665856 0.0001163898552110946 0
2.989628572966645 0.002398856750860218 0
3.00150273917212 -3.986098498509191e-05 0
2.999802833553685 0.0004568505295525557 0
2.999964024600223 8.380944984748151e-05 0
2.999127372288968 0.00207327099291216 0
3.000002313345356 -9.678333765239879e-07 0
3.001800502933655 -2.10718563498324e-05 0
3.000647000706689 -1.628013918714111e-07 0
3.004050677001989 9.574222913294904e-06 0
3.001573234970869 -5.235124073526353e-05 0
3.000239180246428 -6.390193674155057e-06 0
3.000652252468973 -3.683587118307049e-05 0
3.00009033131143 -4.214580343833905e-06 0
3.000270652946708 -1.103958812775242e-05 0
3.000032015600844 -8.006060700678743e-07 0
3.00009640646102 2.288308267592144e-06 0
3.000009212120289 5.595322093509312e-07 0
3.00084596688199 1.186024001494498e-05 0
3.000002165632645 5.160848407650563e-09 0
3.000000182970388 7.017834410250587e-08 0
2.999895217746693 0.000118888967827819 0
2.999463888768902 0.0005982453720448833 0
2.999999963919993 1.19287628240359e-08 0
2.999968069240447 9.268731664281688e-05 0
2.9999994131164 5.342914323603464e-08 0
3.000000000140015 3.027293428193532e-10 0
0.3409299254138384 0.102211586763186 0
2.999999856051723 5.214130690478069e-09 0
2.999999854736351 -1.404803958335418e-10 0
2.999999932141201 -1.647403449049078e-09 0
2.99999998408244 -2.445909878705025e-09 0
2.999999998650893 -3.422339268217606e-10 0
3.000000003086405 1.321572045071666e-10 0
3.00000000059475 7.883911646292645e-11 0
2.999999999096036 -3.873501091099136e-11 0