<?xml version="1.0"?>
<VTKFile type="UnstructuredGrid">
  <UnstructuredGrid>
  <Piece NumberOfPoints="1224"  NumberOfCells="2290">
    <Points>
      <DataArray type="Float64" NumberOfComponents="3" format="ascii">
0 0 0
0.6 0 0
0.6 0.2 0
3 0.2 0
3 1 0
0 1 0
0.05454545454535233 0 0
0.1090909090906768 0 0
0.1636363636359771 0 0
0.2181818181812728 0 0
0.2727272727265793 0 0
0.3272727272720317 0 0
0.3818181818176247 0 0
0.4363636363632168 0 0
0.4909090909088285 0 0
0.5454545454544089 0 0
0.6 0.03999999999991203 0
0.6 0.07999999999979179 0
0.6 0.1199999999997886 0
0.6 0.1599999999998948 0
0.6510638297871261 0.2 0
0.7021276595742618 0.2 0
0.7531914893613819 0.2 0
0.8042553191485237 0.2 0
0.8553191489356438 0.2 0
0.9063829787228289 0.2 0
0.957446808509926 0.2 0
1.008510638297009 0.2 0
1.059574468084092 0.2 0
1.110638297871174 0.2 0
1.161702127658257 0.2 0
1.21276595744534 0.2 0
1.263829787232422 0.2 0
1.314893617019505 0.2 0
1.365957446806588 0.2 0
1.417021276593671 0.2 0
1.468085106380754 0.2 0
1.519148936167923 0.2 0
1.570212765955006 0.2 0
1.621276595742088 0.2 0
1.672340425529171 0.2 0
1.723404255316254 0.2 0
1.774468085103337 0.2 0
1.825531914890624 0.2 0
1.876595744677951 0.2 0
1.927659574465349 0.2 0
1.978723404252714 0.2 0
2.029787234040074 0.2 0
2.080851063827477 0.2 0
2.131914893614798 0.2 0
2.182978723402204 0.2 0
2.234042553189523 0.2 0
2.285106382976928 0.2 0
2.336170212764247 0.2 0
2.387234042551653 0.2 0
2.438297872338975 0.2 0
2.489361702126377 0.2 0
2.540425531913739 0.2 0
2.591489361701102 0.2 0
2.642553191488421 0.2 0
2.693617021275827 0.2 0
2.744680851063146 0.2 0
2.795744680850551 0.2 0
2.84680851063787 0.2 0
2.897872340425276 0.2 0
2.948936170212618 0.2 0
3 0.2533333333332341 0
3 0.3066666666664725 0
3 0.3599999999996274 0
3 0.413333333332804 0
3 0.4666666666659806 0
3 0.5199999999991571 0
3 0.5733333333323336 0
3 0.6266666666656895 0
3 0.6799999999991551 0
3 0.7333333333326146 0
3 0.7866666666660802 0
3 0.8399999999995775 0
3 0.8933333333330373 0
3 0.9466666666664969 0
2.949152542373491 1 0
2.898305084746983 1 0
2.847457627120474 1 0
2.796610169493702 1 0
2.745762711866469 1 0
2.694915254239208 1 0
2.644067796611963 1 0
2.593220338985156 1 0
2.542372881358647 1 0
2.491525423732018 1 0
2.44067796610481 1 0
2.389830508477549 1 0
2.338983050850287 1 0
2.288135593223026 1 0
2.237288135595765 1 0
2.186440677968504 1 0
2.135593220341243 1 0
2.084745762713982 1 0
2.033898305086721 1 0
1.983050847459614 1 0
1.932203389832729 1 0
1.881355932205844 1 0
1.830508474578958 1 0
1.779661016952073 1 0
1.728813559325189 1 0
1.677966101698303 1 0
1.627118644071418 1 0
1.576271186444533 1 0
1.525423728817648 1 0
1.474576271190575 1 0
1.423728813563314 1 0
1.372881355936053 1 0
1.322033898308791 1 0
1.27118644068153 1 0
1.220338983054269 1 0
1.169491525427008 1 0
1.118644067799747 1 0
1.067796610172485 1 0
1.016949152545224 1 0
0.9661016949179628 1 0
0.9152542372907018 1 0
0.8644067796634407 1 0
0.8135593220361792 1 0
0.7627118644089181 1 0
0.7118644067816566 1 0
0.661016949154396 1 0
0.6101694915271345 1 0
0.5593220338998739 1 0
0.5084745762726124 1 0
0.4576271186453518 1 0
0.4067796610180903 1 0
0.3559322033908292 1 0
0.3050847457635677 1 0
0.2542372881363066 1 0
0.2033898305090456 1 0
0.1525423728817841 1 0
0.101694915254523 1 0
0.05084745762726151 1 0
0 0.9473684210524125 0
0 0.8947368421048248 0
0 0.8421052631576025 0
0 0.7894736842105994 0
0 0.7368421052635962 0
0 0.6842105263165927 0
0 0.6315789473695894 0
0 0.5789473684225861 0
0 0.5263157894755828 0
0 0.4736842105282874 0
0 0.4210526315806998 0
0 0.3684210526331123 0
0 0.3157894736855248 0
0 0.2631578947379374 0
0 0.21052631579035 0
0 0.1578947368427625 0
0 0.1052631578951749 0
0 0.05263157894758741 0
0.4374856279758046 0.955462795473483 0
0.625531914893563 0.2394317949808221 0
0.7891616249544176 0.9557759867023439 0
2.570562443351098 0.9559758769411787 0
2.364406779663917 0.9559648099769389 0
2.161016949154874 0.9559648099769389 0
1.957627118646171 0.9559648099772646 0
1.756856606547665 0.9560078743553572 0
1.553415402058453 0.9561420672712786 0
1.347457627122422 0.95627738856474 0
1.144067796613377 0.9563034567995272 0
0.04146670856173688 0.5498854761242812 0
0.9828861012149002 0.2442383967812095 0
2.465390809289578 0.2421522008426663 0
2.259572257543314 0.243586373321511 0
2.055319178697841 0.24363095694403 0
1.851066099915384 0.2436741865527954 0
1.646810778591931 0.2437170671454607 0
1.442550972205278 0.2437587738062726 0
1.238275543433999 0.2442249255777628 0
0.5808319854219957 0.2417757800606361 0
0.6039807146029165 0.2785115072887754 0
2.951522810440164 0.5995349944823752 0
0.5591131416216563 0.2791940688436214 0
0.5817690965011905 0.3180386921514113 0
0.5363223429032008 0.3181181454258206 0
0.5590799034518541 0.3577335228902347 0
2.671507320584846 0.2416532643303031 0
0.5129751095268966 0.3576683284772433 0
0.5360042291720796 0.3976917483469583 0
0.5824744072527975 0.3977458985417416 0
0.5593202208963615 0.4382323507424581 0
0.6062221806132498 0.4382172989803606 0
0.5831398502988122 0.4790536480492864 0
0.630245509211025 0.4792447281197085 0
0.5373735766893435 0.4817209888486334 0
0.2780994584865757 0.9660670791366374 0
0.9407829849899363 0.9559852449915113 0
0.6069171020766708 0.5203953730037822 0
0.6544691944766102 0.5205851219036783 0
2.724115018794794 0.9563165682871465 0
0.04341732373162228 0.2894490564426765 0
0.6304562046384772 0.5622881188475496 0
0.6786259291441818 0.5621981517123112 0
0.03938236249337418 0.7091098825652095 0
0.2999999999993055 0.04723774929726795 0
0.7024556039582556 0.5200372393771872 0
0.726826368578132 0.562505099575485 0
0.6545296629344706 0.6041261864689124 0
0.6061411599039735 0.6041581669226386 0
2.954333097254252 0.4393531299125908 0
0.7512905139641642 0.5199435586712576 0
0.7757938242112172 0.5624873891767795 0
0.4902278874550028 0.3174350849704655 0
0.4661669324669476 0.3576870257641042 0
0.8003371868304782 0.5195844107098163 0
0.8251782158071723 0.5621174250913318 0
0.6300572939290072 0.6460588488486728 0
0.581677101888915 0.6462390077748084 0
0.7994632498085218 0.6067218912904607 0
0.850068894442807 0.6047738158182728 0
0.8747482025846163 0.5617915498272615 0
0.8998102571129438 0.6045430073239006 0
0.924588798996443 0.5614360364847856 0
0.9497125983499418 0.6046345614192383 0
0.9744389394813738 0.5613114208485291 0
0.9997656958801404 0.604758732930365 0
1.024028015453996 0.5597386087889248 0
1.050046148741532 0.6042836632406788 0
1.075213347289947 0.5607219500906248 0
1.100604808237692 0.6043040651294929 0
1.125727120818654 0.5598592244124957 0
1.151165990249003 0.6040638744783449 0
1.176319565514503 0.5595216793632644 0
1.201793840633129 0.6038781229769293 0
1.226960854257978 0.5600604284234054 0
1.252470704079807 0.6038664424080111 0
1.277198987313166 0.55874807111347 0
1.303148970446812 0.6035341865995129 0
1.328130525802366 0.5586520846649797 0
1.353966012915828 0.6034054551655909 0
1.379205474149696 0.558835304845746 0
1.404820923589671 0.6032503772964327 0
1.430092956912838 0.5587079795953892 0
1.455686300628245 0.6030926920218221 0
1.480963489515269 0.5580480170404921 0
1.506562983627252 0.6028436706904448 0
1.531847734917255 0.5577680566445021 0
1.557453558526421 0.6026435181305781 0
1.582745756648754 0.5575726351194972 0
1.608358176126191 0.6024617369905624 0
1.633656322435163 0.5573842056888257 0
1.659277805706528 0.6022873884346892 0
1.684577462424181 0.5572075399874397 0
1.710203504633815 0.6021111834258887 0
1.735506494091908 0.5570246051384745 0
1.761134606493805 0.6019307913070558 0
1.786441498808711 0.5568475628142857 0
1.812072359676459 0.6017522495250318 0
1.837381834584306 0.5566653603575672 0
1.863017119880456 0.601574020443024 0
1.888326681794851 0.5564884669211013 0
1.913963858781491 0.601395113412113 0
1.939274704592935 0.5563067813822595 0
1.964908406083961 0.6012129143420911 0
1.990224566339525 0.5561292537946573 0
2.015859329864652 0.601032757987411 0
2.041177190815608 0.5559477304122714 0
2.066818109147928 0.600855564813206 0
2.09213259478423 0.5557710179709322 0
2.117774443326183 0.6006760179252703 0
2.143088896138059 0.5555900146741853 0
2.168729305797513 0.6004921726308964 0
2.194045774061603 0.5554125217101814 0
2.219686577151481 0.6003111949874665 0
2.245003702950199 0.5552312296013228 0
2.270641766736839 0.6001298880828497 0
2.295962173634055 0.5550546947866846 0
2.321601310982481 0.599950595338254 0
2.346923922781879 0.5548708301001631 0
2.372568004594504 0.5997713467128002 0
2.397895756972162 0.5547000681173012 0
2.423546697517365 0.5996004731097838 0
2.448884659670238 0.5545095609010697 0
2.474538141419978 0.5994220729206983 0
2.499902931415869 0.5543494429014709 0
2.525546234724433 0.5993228147833797 0
2.550973655834774 0.5541346321759457 0
2.576685338327378 0.5992395038842441 0
2.602182482443039 0.5540180644105763 0
2.958944511946492 0.7598964409357507 0
2.628014314012249 0.5990918128353608 0
0.4429170888396284 0.3159793431387367 0
0.4184631156771032 0.357715436029677 0
0.3946070818022522 0.3157219358498637 0
0.3697276561976696 0.3576135465858128 0
2.449044355814981 0.643990885448769 0
2.24531935830005 0.6444881680698032 0
1.024857369602972 0.6487487015028032 0
2.041498164113345 0.6452136474256573 0
1.837701628146142 0.6459229900926835 0
0.3455853078837237 0.3150377509381005 0
0.3204780172155196 0.3574251905568473 0
0.3449438693484468 0.4002519798591844 0
1.633970683060678 0.6466170330762969 0
1.227333380683899 0.6479317947648683 0
1.430444030483603 0.6473399689389928 0
0.875196942148915 0.6483605753517908 0
0.6057010339261732 0.6883083412871458 0
0.5571396249147901 0.6885103796531055 0
2.653543252321963 0.5527758280498023 0
1.099471497978971 0.5148848291986879 0
2.602427017093663 0.6438096025956825 0
2.653851606946175 0.6437140715169269 0
1.353138019780104 0.5138574114565649 0
1.556762689169365 0.5115839513085039 0
1.760509743411542 0.5109012431757174 0
1.964341412665395 0.510388685431229 0
0.2953909602266698 0.4001745965167012 0
[...]
    <PointData>
      <DataArray type="Float64" NumberOfComponents="3" Name="Velocity" format="ascii">
2.999999910449039 0 0
0 0 0
0 0 0
3.217296031020459 0 0
3.218233670635759 0 0
3.000000000000535 0 0
3.000000022962018 0 0
3.000000276657073 0 0
2.999997788272831 0 0
3.000009110616827 0 0
3.000011544644958 0 0
2.999510582231449 0 0
3.002075123984314 0 0
3.020618386039299 0 0
2.794837152076959 0 0
1.481871844039424 0 0
0 0.0183455227065801 0
0 0.01606828646281917 0
0 0.09543714302494977 0
0 0.2441586595808757 0
1.750290657775579 0 0
2.480831668832083 0 0
2.814436073932643 0 0
2.950156156361373 0 0
2.991216201367256 0 0
3.000341636068204 0 0
3.000581406790887 0 0
3.00005622927222 0 0
2.999964074022846 0 0
2.999995599864708 0 0
3.000003821321174 0 0
2.999999411938373 0 0
2.999999853606905 0 0
3.000000091101351 0 0
2.999999976973113 0 0
3.000000004000384 0 0
2.999999999344358 0 0
3.000000000159332 0 0
2.999999999946862 0 0
3.000000000018292 0 0
2.999999999994181 0 0
3.00000000000165 0 0
2.999999999999564 0 0
3.000000000000121 0 0
2.99999999999997 0 0
2.999999999999914 0 0
3.000000000000373 0 0
2.999999999999015 0 0
3.000000000001715 0 0
2.999999999999951 0 0
2.999999999988514 0 0
3.000000000029303 0 0
3.000000000032734 0 0
2.999999999669183 0 0
3.000000000501593 0 0
3.000000000360439 0 0
3.000000000299148 0 0
2.999999971196868 0 0
3.000000189248155 0 0
2.999999515852951 0 0
2.999998262586295 0 0
3.000018669024704 0 0
2.999981072595754 0 0
2.999564234351368 0 0
3.001732369331387 0 0
3.039516695205595 0 0
3.218551823366734 0.0008859499342383341 0
3.208107363147037 0.0001357782437853767 0
3.209189617544042 0.0002792784482988096 0
3.209032427221477 -0.0001183050233779892 0
3.211405413749317 -0.0002702872363633345 0
3.213618708321653 -0.0002110590989799716 0
3.211494496130902 6.731942802770076e-05 0
3.21075801641468 -0.0003422919292424045 0
3.214426334766128 2.101547298162734e-05 0
3.212354751860651 0.0001690249023123562 0
3.213627032718804 0.0001121202236291476 0
3.210262355593991 -6.643145369662217e-05 0
3.208480115158093 -0.001075696590442785 0
3.219947042695423 -0.0008003000623213449 0
3.035286027541698 0 0
3.002112231760384 0 0
2.999643762971842 0 0
2.999980588360586 0 0
3.000013751462829 0 0
2.999998768412546 0 0
2.999999543925975 0 0
3.000000164937465 0 0
2.999999975269982 0 0
3.000000001963151 0 0
2.999999999564342 0 0
3.000000000550974 0 0
2.999999999794201 0 0
2.999999999991885 0 0
3.000000000020019 0 0
2.999999999999933 0 0
2.999999999995902 0 0
3.00000000000182 0 0
2.999999999999792 0 0
2.999999999999781 0 0
3.000000000000184 0 0
2.999999999999913 0 0
3.000000000000028 0 0
2.999999999999994 0 0
3.000000000000002 0 0
3.000000000000002 0 0
2.999999999999999 0 0
2.999999999999993 0 0
3.000000000000028 0 0
2.999999999999989 0 0
2.999999999999885 0 0
3.000000000000157 0 0
3.000000000000267 0 0
2.999999999999307 0 0
2.99999999999973 0 0
3.000000000002587 0 0
2.99999999999938 0 0
2.999999999992276 0 0
3.000000000000582 0 0
3.0000000000191 0 0
3.000000000018022 0 0
2.999999999986202 0 0
2.999999999959037 0 0
2.999999999959229 0 0
2.999999999972776 0 0
2.999999999982164 0 0
2.999999999984365 0 0
2.99999999999269 0 0
2.999999999997971 0 0
2.99999999999536 0 0
3.000000000004178 0 0
3.000000000000017 0 0
3.000000000002911 0 0
2.999999999999875 0 0
2.999999999999934 0 0
3.00000000000035 0 0
2.999999999999957 0 0
2.999999999999847 0 0
3.000000000001578 0 0
2.999999999996736 0 0
2.999999999998065 0 0
3.000000000019065 0 0
2.999999999962186 0 0
3.000000000030984 0 0
3.000000000018027 0 0
2.999999999972212 0 0
3.000000000512111 0 0
2.999999999697729 0 0
2.999999996962533 0 0
2.999999999289572 0 0
3.000000006776014 0 0
3.000000016677001 0 0
3.00000003021875 0 0
3.000000020533041 0 0
2.999999995006705 0 0
2.999999971638743 0 0
3.00000000000257 -2.293093972312572e-11 0
1.818105943548398 0.3458792423539968 0
3.000000000089119 5.909469277767169e-11 0
3.000000044328975 -1.728532160394997e-09 0
3.000000000070612 4.896547191638358e-12 0
3.000000000005267 6.281624298930142e-13 0
2.999999999999805 -7.049738543456882e-14 0
3.000000000000005 -1.046632911506049e-14 0
3.000000000000002 3.579161957636499e-15 0
2.999999999999452 7.081080432883832e-14 0
2.999999999994504 -6.26413663386202e-13 0
2.999999999896447 1.043554198118645e-10 0
3.000230939576066 -5.641739492212094e-05 0
3.000000005828253 -3.46045460186806e-10 0
2.999999999942511 1.815962399618446e-12 0
3.00000000000076 8.175742301422045e-14 0
2.999999999999976 4.581872483308e-14 0
3.000000000011822 -5.245050804433909e-14 0
3.000000003891801 -1.146958701398676e-10 0
2.999999518438684 3.777000735525044e-08 0
2.000367643015688 0.362877342456811 0
2.517037560823829 0.2923470185187644 0
3.050078854618811 -0.0001070525116366349 0
2.708197933065487 0.16193752848617 0
2.875158297938945 0.1037439241508032 0
2.954161373355328 0.03268522008608251 0
2.982791785528477 0.01756567475020629 0
2.999998164183552 8.232459852922392e-08 0
2.997610556329955 0.00263275469443718 0
2.999450372310178 0.00108410149816178 0
2.996276232751327 0.005694889639733434 0
3.00015546357879 4.793225606693469e-05 0
2.999837084887782 0.0007335852890822614 0
3.000138252919617 -0.0001824662751510103 0
3.000160537918907 -0.0002706303600863551 0
3.000052259264841 -8.230366274428454e-05 0
2.999999999998569 -1.593410914629651e-12 0
2.999999999954205 -1.241701267531439e-11 0
3.000022160168579 -6.255499978243797e-05 0
3.00003830100726 -0.0001309857293069338 0
3.000005770659179 -3.527581882165528e-07 0
3.000000000060684 6.885546497277182e-10 0
2.999996833317649 6.362340046310613e-06 0
3.000001348230548 -4.898810589352083e-06 0
3.00000000003133 -4.614628575747794e-12 0
2.999886412411347 5.93155182790313e-06 0
3.000018582250545 -0.0001510033386446703 0
3.000000692056465 -1.880033805549169e-06 0
2.999998734813834 6.859288207227785e-06 0
2.999998821935589 3.89550445134419e-06 0
3.059987445482116 -0.0002060189908407424 0
2.999990646213886 -0.0001048115352014969 0
3.000001132804815 4.822093274240636e-06 0
2.995895533419217 0.00321635943654564 0
3.000669693130866 -0.0002542510782419637 0
2.999982641994104 -4.807486393534432e-05 0
3.000002522304738 7.905232632919152e-06 0
3.000000047532248 -4.238662612230067e-07 0
3.000000246824424 -6.17711101543156e-07 0
3.000001276037927 2.874576942473786e-06 0
3.000000726881206 5.617875311479738e-07 0
3.000003445723747 5.101436475565048e-06 0
2.999999950055325 -5.769534119074952e-07 0
3.000002215985859 9.400567928643269e-07 0
2.99999947040505 -5.44522366591419e-07 0
3.000000033770705 -9.391106076800407e-07 0
2.999999711505277 -2.101438825269186e-08 0
2.999999223569691 -4.360562872162095e-07 0
3.000000062340101 1.305963129093013e-07 0
2.999999810056926 2.107563248244271e-07 0
3.000000099031058 1.459540692714873e-08 0
3.000000084454309 1.055256163497662e-07 0
3.000000001219376 -4.024871540055688e-08 0
3.000000058527606 -5.153877442473004e-08 0
2.999999981085897 3.487271255098092e-09 0
2.999999990912306 -1.033950431876564e-08 0
2.999999999574387 6.574701904836565e-09 0
2.999999988585909 9.929196273685906e-09 0
3.000000003443345 -2.643388320603671e-09 0
3.000000003946676 -1.719228779588374e-09 0
2.999999999237577 1.304590064014884e-10 0
3.000000000268484 -3.131463386813385e-10 0
2.999999999767237 2.210725936920954e-10 0
2.999999999472659 2.573592409951869e-10 0
3.000000000206121 -1.109268347116296e-10 0
3.00000000023165 -9.261426024130406e-11 0
2.999999999920223 3.487312778937028e-11 0
2.999999999925549 2.66980406234411e-11 0
3.00000000002201 -8.952797747046595e-12 0
3.00000000002136 -7.201776766044965e-12 0
2.999999999995034 2.161682800871622e-12 0
2.999999999994059 1.905238801963784e-12 0
3.000000000001016 -5.323046925542797e-13 0
3.0000000000016 -4.85489682571045e-13 0
2.999999999999802 1.343317794877879e-13 0
2.999999999999573 1.196990207808709e-13 0
3.000000000000045 -3.252787870705162e-14 0
3.000000000000111 -2.888544932303322e-14 0
2.999999999999992 7.805631364463092e-15 0
2.99999999999998 8.383560138651827e-15 0
2.999999999999972 -5.479225305637985e-15 0
3.000000000000011 -1.502883810194846e-14 0
3.000000000000105 2.712434523959541e-14 0
2.999999999999901 4.289774394685184e-14 0
2.999999999999799 -8.572666009410213e-14 0
3.000000000000377 -8.871088703362767e-14 0
3.000000000000087 1.617227015747492e-13 0
2.999999999999127 1.360701688680801e-13 0
3.000000000000943 -1.759287003436838e-13 0
3.000000000001075 -1.782521217578733e-13 0
2.999999999995837 1.334179955705489e-14 0
3.000000000001799 2.64796424383076e-13 0
3.000000000008316 2.598199207412731e-13 0
2.999999999987201 -4.65288838700044e-13 0
3.00000000000044 -1.50249065173898e-13 0
3.000000000020849 4.862838914203109e-13 0
2.99999999995904 -8.144395387481661e-13 0
3.000000000041049 7.034943074171962e-13 0
3.000000000021205 1.933732358794763e-12 0
2.999999999823141 -3.901973876255686e-12 0
3.000000000370771 -2.119646861265773e-12 0
2.999999999800232 1.062011360983375e-11 0
2.999999998970505 -1.614015548581581e-12 0
3.000000002011298 -4.413460834225482e-11 0
3.000000002435154 2.969386002450646e-11 0
2.99999999306276 1.385579350242685e-10 0
2.999999985972372 -1.086481907759614e-10 0
3.000000014387345 9.674535007138592e-10 0
3.000000084409519 3.212352322169749e-10 0
3.0000000591787 -1.004185709955486e-08 0
3.069509261999992 0.0001291203147830499 0
2.999999691254703 -1.771906045292031e-09 0
3.00096862627716 -0.000255052230559058 0
3.000149506801792 -9.72650762951231e-05 0
3.000144990472556 -7.126695588220194e-05 0
2.99996988445002 4.896884750186804e-06 0
3.000000002002769 3.951650929495871e-12 0
3.000000000022521 1.472676010643446e-12 0
3.000000087973385 4.733328559128452e-08 0
2.999999999998641 -3.217581436988999e-13 0
3.000000000000023 7.975548856474907e-15 0
2.999956696458773 1.04445447576376e-05 0
2.999994922530677 2.871660024728829e-06 0
2.999994353470265 4.029165784216208e-06 0
3.000000000000504 -3.520895702474437e-13 0
3.000000005869798 3.702879641729258e-10 0
3.000000000058432 -7.281832658509163e-11 0
2.999999636683724 -4.12643393676149e-07 0
3.000000059890786 -2.20586956351119e-07 0
3.000000000182456 -4.333535204603162e-08 0
2.999999199574152 2.255190774227528e-08 0
2.99999943524345 1.656425012491296e-07 0
3.000000063391178 6.603784445301921e-09 0
2.999999189595954 -1.216225660225399e-08 0
3.000000002935489 -1.198113439965877e-09 0
2.999999999944756 1.383236890328951e-11 0
2.999999999999671 4.341311336120664e-14 0
2.999999999999932 9.32388279890091e-14 0
3.00000232104482 -5.927217685508088e-07 0
3.000001998763903 -7.980438870201854e-07 0
3.000000000005395 -1.327835796607905e-13 0
3.000000000395264 -2.522383013934416e-12 0
3.0000000943886 -2.568588171579591e-09 0
3.000004727333852 -0.0001022406564487068 0
3.000004754719111 5.674642295619181e-06 0
2.999999727339048 1.031129567572422e-08 0
2.999999356924242 -7.141350418566037e-08 0
2.999999985030618 5.69357315151308e-08 0
2.999999998017653 5.059066838397405e-08 0
2.999999989065747 3.334485467232171e-08 0
2.999999962870754 3.929680605285805e-08 0
3.000000002806964 3.479210723273198e-09 0
2.999999977512581 3.85235565861489e-08 0
3.000000006461844 -7.331854487068551e-09 0
3.000000005043838 4.806089358662275e-09 0
2.999999999857365 -2.378782748223525e-09 0
3.000000008024082 -7.628804187432973e-09 0
2.999999997947389 1.84817506992273e-09 0
2.999999998189172 -3.951004262039358e-10 0
0.9438052816728494 0.1183968259613143 0
3.001236946349807 -0.000337271540464031 0
3.000000000761624 -2.211900597230907e-10 0
3.000003670601076 -5.609176408836439e-07 0
2.99976743629368 -1.537099160231292e-05 0
2.99999991889922 -1.028326735912005e-07 0
2.984929617747875 0.009164421397733219 0
2.999999999185538 1.352379621641739e-09 0
2.999999099244254 8.695162338086871e-09 0
3.000000106845689 -3.300314312733231e-10 0
3.000002611101805 -3.954227354942349e-08 0
3.000009812373968 -1.296269281548508e-07 0
2.729218433683946 0.09175921289909275 0
3.000000002218026 -6.683193640040631e-09 0
2.999998258975519 -1.723259232207274e-07 0
3.000000001115802 -5.018095330091357e-10 0
2.999999981669279 3.951659473004074e-09 0
2.999965472574504 7.289821160589778e-06 0
3.000009459202178 -1.873889320663436e-06 0
3.000000000001525 7.740365827137355e-13 0
3.000000000042174 -1.697401784040242e-11 0
2.999999999999565 -7.553049271453652e-13 0
2.999999999999963 1.101475119086376e-14 0
2.999999999999909 -5.050313736940645e-15 0
3.000000000022257 -1.014805462059872e-11 0
3.000000000007391 -5.552216581933235e-13 0
2.999999999999917 1.233847189392085e-13 0
3.000000000320377 -5.925422881885472e-12 0
3.000000000245105 -3.781844954123584e-12 0
3.000000000000324 1.228145421009175e-14 0
2.999981359361934 2.463773965002334e-06 0
3.000000011019433 -2.47351818854259e-11 0
2.999999999167167 6.468865401671722e-10 0
2.999999999998765 2.338622678633572e-13 0
3.000000000000082 -2.387805288354074e-14 0
3.000000003533199 1.672835468309006e-10 0
3.000000000014832 1.63988117692922e-12 0
3.000000000001894 1.316204107898681e-14 0
2.999999999978203 -2.081601929365502e-12 0
2.999999999999999 -6.781990736585377e-16 0
3.000000000000026 -5.094194691576636e-14 0
2.999999999999965 -9.929910286501178e-13 0
2.999999970797136 -9.98497525279443e-09 0
3.00000000000102 1.227902095475696e-13 0
2.999999999999959 2.047011434826958e-14 0
2.999999999995364 8.566295690398524e-13 0
2.99999999957645 1.410331329950078e-10 0
2.999999999826799 3.210078688280025e-12 0
2.999999999957822 -5.799277504422938e-13 0
3.000000084085594 -3.534247965576395e-08 0
3.000000056529422 2.078181224146443e-09 0
2.999999979239986 3.048453919818874e-08 0
2.999807434830012 4.093946491367839e-06 0
3.013054636339796 -0.0001689781322400894 0
3.0000000022079 -2.930830154371924e-11 0
2.9999998706073 -5.567195743392655e-08 0
3.000000000420485 3.201172890561847e-10 0
2.991781236031493 0.01414832665302653 0
2.999999890147664 5.016367804440578e-08 0
2.999999999897364 -1.620730108790579e-10 0
3.000000003866405 -5.16532584077907e-09 0
2.999999997226409 1.636951179216334e-09 0
3.000009349147819 1.260584765949179e-09 0
2.999999757617788 -2.013948171889169e-09 0
3.000000089840754 -3.149034135758184e-09 0
2.9999999999575 -1.932195938688477e-09 0
3.000000000012416 8.264387180538434e-11 0
3.000000004492151 -1.042518121663065e-07 0
2.99997835199793 1.917486527664651e-06 0
2.999999999811247 1.634985461520986e-10 0
2.99999843214702 2.728214919749022e-06 0
2.999997285534064 -4.272505970779176e-07 0
3.000006765244701 -1.126814942594634e-06 0
2.999998833987191 6.089141481656066e-08 0
3.000009230136864 -2.425570815962709e-08 0
2.999981845307082 -1.055155410111539e-06 0
3.060904698025525 0.0005765323169240255 0
3.046870652914951 -0.0006635117269339706 0
3.000001070270117 -6.563300375511494e-07 0
3.000000000079338 -3.21727130181439e-11 0
2.999981733171994 -0.0001347367117081615 0
3.00023186443847 0.0005375977656077497 0
3.000115300219959 -0.0001989235938518761 0
3.000006304251217 5.111303382357587e-07 0
2.999999845766975 1.597942282104694e-07 0
2.565548325432006 0.1512222042007876 0
3.00000032924533 9.059115202323865e-07 0
2.999999941435385 2.335496971696275e-08 0
3.000000031808697 -6.4736298048516e-09 0
3.000000029917488 -6.948457166949229e-09 0
2.999998369306499 1.854027765822375e-07 0
3.000000000003457 -3.626480380129655e-11 0
3.000834522293532 0.001662320732298646 0
3.000491366552093 -0.0001818249953806234 0
2.999326859183437 0.008076346652860018 0
2.999846931710107 6.885874560028224e-06 0
2.999967561235143 -2.922931407918277e-07 0
2.999999999989829 1.611681244398043e-11 0
2.999999999951422 1.17521168335289e-10 0
3.000000071120032 -5.29473530518966e-09 0
3.000000007318588 -1.898954929938304e-11 0
2.999999983252916 7.917777920368224e-10 0
2.999999994836516 2.403763410507749e-10 0
3.000000002981573 -1.427918163634721e-10 0
3.000000001484832 -6.687347155159952e-11 0
2.99999999885669 1.58473361013571e-11 0
3.000000000002704 2.965370298737629e-11 0
3.000000000386185 -2.159599731054405e-12 0
2.999999999826175 -1.366891542340419e-11 0
3.000000000001965 7.338848778314716e-12 0
3.000000000021527 -2.768644372720585e-12 0
2.999999999976515 -2.790933644661987e-12 0
3.000000000016359 4.511117300696962e-12 0
2.999999999992971 -3.108221667263218e-13 0
2.999999999997211 -1.645449429794053e-12 0
3.000000000009419 2.778749680195234e-13 0
2.99999999999583 2.489777402703552e-13 0
2.999999999996869 2.493042329138516e-13 0
3.000000000003095 -7.979032197972558e-14 0
2.999999999999848 -3.371568073809686e-13 0
2.999999999998935 1.585577113760374e-13 0
3.000000000000675 1.713091550922674e-13 0
3.000000000000132 -1.643686039537793e-13 0
2.999999999999615 -1.486294556449875e-14 0
3.00000000000007 1.070923895551931e-13 0
3.000000000000129 -4.786331967834718e-14 0
2.999999999999956 -4.912501413134463e-14 0
2.999999999999976 4.830176467884629e-14 0
3.000000000000007 1.56274035861849e-14 0
3.000000000000005 -3.12704629759977e-14 0
3.00000000000001 -3.13122575772785e-15 0
2.999999999999984 2.019517683224294e-14 0
2.99999999999999 2.288697174341617e-15 0
3.000000000000023 -1.787363623308027e-14 0
2.999999999999982 4.247727357133395e-15 0
3.000000000000057 -8.823391929878652e-15 0
3.000000000000079 -4.233613416386404e-14 0
2.999999999999675 1.614621916623294e-13 0
2.999999999999968 1.086618679095801e-13 0
3.000000000000433 -5.214120417328344e-13 0
2.9999999999995 -5.894542976933631e-14 0
3.000000000001296 5.943611318765598e-13 0
3.000000000001171 -4.518159366686441e-13 0
2.999999999994492 1.548489886989118e-12 0
3.000000000001634 1.188053392270438e-12 0
2.999999999999543 -7.05802454504513e-12 0
2.999999999988637 3.667343099552615e-13 0
3.000000000043225 5.421146586697555e-12 0
3.000000000009995 -6.011296366490895e-12 0
2.999999999926213 2.476093262895698e-11 0
3.000000000038983 6.246760186567203e-12 0
2.99999999989296 -5.424823010278677e-11 0
2.999999999918864 1.156789114457856e-11 0
3.00000000041888 -1.733162914837473e-11 0
2.999999999959778 -3.504792601221992e-11 0
2.99999999985719 1.74999411514056e-10 0
3.000000000326176 3.645685055389907e-11 0
2.999999998704519 -3.30715009768602e-10 0
2.999999999827383 8.637978287204306e-11 0
3.000000001624302 -1.436456709942287e-10 0
2.999999999112182 -2.985947636087994e-10 0
3.000000003257761 1.814697041632226e-09 0
3.000000000418547 -2.623134077686768e-11 0
2.999999997847182 -2.218361841699489e-10 0
3.000000002388941 1.368569531606357e-09 0
2.99999999034647 -7.001722787746989e-09 0
3.000000002299172 1.011702344889481e-09 0
2.999999987584479 -9.582809134262781e-09 0
2.9999999996289 -2.323157676874713e-09 0
2.999999994449708 -2.119457858626003e-10 0
2.999999997090316 -6.505130956497475e-09 0
3.000006509803022 -4.068580128215642e-07 0
2.999864636878729 -3.963375911872741e-06 0
3.000000008669759 -5.724350986425059e-09 0
2.999999998450242 -2.400733979731347e-11 0
3.000020438510179 -3.312973276680487e-06 0
2.999863504283005 2.311355151413067e-05 0
2.999772852681859 7.19104937962898e-06 0
3.00000000072398 1.526257096272219e-08 0
2.999999998200803 -7.232297805603483e-09 0
3.000000042650346 7.472111396560076e-08 0
2.999999863864109 9.047978870843005e-08 0
2.999701724431032 3.869490400779654e-06 0
2.99984875084007 -5.322865232071685e-06 0
2.99999127355423 1.185550898424592e-05 0
2.999756134741526 -1.98190652816553e-06 0
2.999981349467899 -1.243632699637684e-06 0
2.999870992155471 4.658645378073385e-06 0
3.000012321640386 1.301266800231069e-07 0
2.999971331285068 4.475166909147292e-06 0
3.000011572803551 -2.748468538222129e-07 0
3.000010480902581 5.043212301919326e-07 0
3.000003798648708 -3.733276195292089e-08 0
2.999759689936031 -1.807968090524663e-06 0
2.999999289106484 -1.287137818486856e-07 0
2.999999125010436 -6.837470552271695e-09 0
3.000000501206397 -4.148754264700637e-07 0
3.000000694325637 4.519078365353563e-08 0
2.999999993819043 -1.198870469362469e-10 0
3.000000000216126 5.617303875379467e-10 0
3.000000252144526 -1.368209137354951e-08 0
3.000000000000226 1.619807572173752e-13 0
2.113081425477402 -0.005504434616534371 0
2.999999775855759 1.197978624415978e-08 0
3.000000071355498 1.772122218419522e-09 0