<?xml version="1.0"?>
<VTKFile type="UnstructuredGrid">
  <UnstructuredGrid>
  <Piece NumberOfPoints="1224"  NumberOfCells="2290">
    <Points>
      <DataArray type="Float64" NumberOfComponents="3" format="ascii">
0 0 0
0.6 0 0
0.6 0.2 0
3 0.2 0
3 1 0
0 1 0
0.05454545454535233 0 0
0.1090909090906768 0 0
0.1636363636359771 0 0
0.2181818181812728 0 0
0.2727272727265793 0 0
0.3272727272720317 0 0
0.3818181818176247 0 0
0.4363636363632168 0 0
0.4909090909088285 0 0
0.5454545454544089 0 0
0.6 0.03999999999991203 0
0.6 0.07999999999979179 0
0.6 0.1199999999997886 0
0.6 0.1599999999998948 0
0.6510638297871261 0.2 0
0.7021276595742618 0.2 0
0.7531914893613819 0.2 0
0.8042553191485237 0.2 0
0.8553191489356438 0.2 0
0.9063829787228289 0.2 0
0.957446808509926 0.2 0
1.008510638297009 0.2 0
1.059574468084092 0.2 0
1.110638297871174 0.2 0
1.161702127658257 0.2 0
1.21276595744534 0.2 0
1.263829787232422 0.2 0
1.314893617019505 0.2 0
1.365957446806588 0.2 0
1.417021276593671 0.2 0
1.468085106380754 0.2 0
1.519148936167923 0.2 0
1.570212765955006 0.2 0
1.621276595742088 0.2 0
1.672340425529171 0.2 0
1.723404255316254 0.2 0
1.774468085103337 0.2 0
1.825531914890624 0.2 0
1.876595744677951 0.2 0
1.927659574465349 0.2 0
1.978723404252714 0.2 0
2.029787234040074 0.2 0
2.080851063827477 0.2 0
2.131914893614798 0.2 0
2.182978723402204 0.2 0
2.234042553189523 0.2 0
2.285106382976928 0.2 0
2.336170212764247 0.2 0
2.387234042551653 0.2 0
2.438297872338975 0.2 0
2.489361702126377 0.2 0
2.540425531913739 0.2 0
2.591489361701102 0.2 0
2.642553191488421 0.2 0
2.693617021275827 0.2 0
2.744680851063146 0.2 0
2.795744680850551 0.2 0
2.84680851063787 0.2 0
2.897872340425276 0.2 0
2.948936170212618 0.2 0
3 0.2533333333332341 0
3 0.3066666666664725 0
3 0.3599999999996274 0
3 0.413333333332804 0
3 0.4666666666659806 0
3 0.5199999999991571 0
3 0.5733333333323336 0
3 0.6266666666656895 0
3 0.6799999999991551 0
3 0.7333333333326146 0
3 0.7866666666660802 0
3 0.8399999999995775 0
3 0.8933333333330373 0
3 0.9466666666664969 0
2.949152542373491 1 0
2.898305084746983 1 0
2.847457627120474 1 0
2.796610169493702 1 0
2.745762711866469 1 0
2.694915254239208 1 0
2.644067796611963 1 0
2.593220338985156 1 0
2.542372881358647 1 0
2.491525423732018 1 0
2.44067796610481 1 0
2.389830508477549 1 0
2.338983050850287 1 0
2.288135593223026 1 0
2.237288135595765 1 0
2.186440677968504 1 0
2.135593220341243 1 0
2.084745762713982 1 0
2.033898305086721 1 0
1.983050847459614 1 0
1.932203389832729 1 0
1.881355932205844 1 0
1.830508474578958 1 0
1.779661016952073 1 0
1.728813559325189 1 0
1.677966101698303 1 0
1.627118644071418 1 0
1.576271186444533 1 0
1.525423728817648 1 0
1.474576271190575 1 0
1.423728813563314 1 0
1.372881355936053 1 0
1.322033898308791 1 0
1.27118644068153 1 0
1.220338983054269 1 0
1.169491525427008 1 0
1.118644067799747 1 0
1.067796610172485 1 0
1.016949152545224 1 0
0.9661016949179628 1 0
0.9152542372907018 1 0
0.8644067796634407 1 0
0.8135593220361792 1 0
0.7627118644089181 1 0
0.7118644067816566 1 0
0.661016949154396 1 0
0.6101694915271345 1 0
0.5593220338998739 1 0
0.5084745762726124 1 0
0.4576271186453518 1 0
0.4067796610180903 1 0
0.3559322033908292 1 0
0.3050847457635677 1 0
0.2542372881363066 1 0
0.2033898305090456 1 0
0.1525423728817841 1 0
0.101694915254523 1 0
0.05084745762726151 1 0
0 0.9473684210524125 0
0 0.8947368421048248 0
0 0.8421052631576025 0
0 0.7894736842105994 0
0 0.7368421052635962 0
0 0.6842105263165927 0
0 0.6315789473695894 0
0 0.5789473684225861 0
0 0.5263157894755828 0
0 0.4736842105282874 0
0 0.4210526315806998 0
0 0.3684210526331123 0
0 0.3157894736855248 0
0 0.2631578947379374 0
0 0.21052631579035 0
0 0.1578947368427625 0
0 0.1052631578951749 0
0 0.05263157894758741 0
0.4374856279758046 0.955462795473483 0
0.625531914893563 0.2394317949808221 0
0.7891616249544176 0.9557759867023439 0
2.570562443351098 0.9559758769411787 0
2.364406779663917 0.9559648099769389 0
2.161016949154874 0.9559648099769389 0
1.957627118646171 0.9559648099772646 0
1.756856606547665 0.9560078743553572 0
1.553415402058453 0.9561420672712786 0
1.347457627122422 0.95627738856474 0
1.144067796613377 0.9563034567995272 0
0.04146670856173688 0.5498854761242812 0
0.9828861012149002 0.2442383967812095 0
2.465390809289578 0.2421522008426663 0
2.259572257543314 0.243586373321511 0
2.055319178697841 0.24363095694403 0
1.851066099915384 0.2436741865527954 0
1.646810778591931 0.2437170671454607 0
1.442550972205278 0.2437587738062726 0
1.238275543433999 0.2442249255777628 0
0.5808319854219957 0.2417757800606361 0
0.6039807146029165 0.2785115072887754 0
2.951522810440164 0.5995349944823752 0
0.5591131416216563 0.2791940688436214 0
0.5817690965011905 0.3180386921514113 0
0.5363223429032008 0.3181181454258206 0
0.5590799034518541 0.3577335228902347 0
2.671507320584846 0.2416532643303031 0
0.5129751095268966 0.3576683284772433 0
0.5360042291720796 0.3976917483469583 0
0.5824744072527975 0.3977458985417416 0
0.5593202208963615 0.4382323507424581 0
0.6062221806132498 0.4382172989803606 0
0.5831398502988122 0.4790536480492864 0
0.630245509211025 0.4792447281197085 0
0.5373735766893435 0.4817209888486334 0
0.2780994584865757 0.9660670791366374 0
0.9407829849899363 0.9559852449915113 0
0.6069171020766708 0.5203953730037822 0
0.6544691944766102 0.5205851219036783 0
2.724115018794794 0.9563165682871465 0
0.04341732373162228 0.2894490564426765 0
0.6304562046384772 0.5622881188475496 0
0.6786259291441818 0.5621981517123112 0
0.03938236249337418 0.7091098825652095 0
0.2999999999993055 0.04723774929726795 0
0.7024556039582556 0.5200372393771872 0
0.726826368578132 0.562505099575485 0
0.6545296629344706 0.6041261864689124 0
0.6061411599039735 0.6041581669226386 0
2.954333097254252 0.4393531299125908 0
0.7512905139641642 0.5199435586712576 0
0.7757938242112172 0.5624873891767795 0
0.4902278874550028 0.3174350849704655 0
0.4661669324669476 0.3576870257641042 0
0.8003371868304782 0.5195844107098163 0
0.8251782158071723 0.5621174250913318 0
0.6300572939290072 0.6460588488486728 0
0.581677101888915 0.6462390077748084 0
0.7994632498085218 0.6067218912904607 0
0.850068894442807 0.6047738158182728 0
0.8747482025846163 0.5617915498272615 0
0.8998102571129438 0.6045430073239006 0
0.924588798996443 0.5614360364847856 0
0.9497125983499418 0.6046345614192383 0
0.9744389394813738 0.5613114208485291 0
0.9997656958801404 0.604758732930365 0
1.024028015453996 0.5597386087889248 0
1.050046148741532 0.6042836632406788 0
1.075213347289947 0.5607219500906248 0
1.100604808237692 0.6043040651294929 0
1.125727120818654 0.5598592244124957 0
1.151165990249003 0.6040638744783449 0
1.176319565514503 0.5595216793632644 0
1.201793840633129 0.6038781229769293 0
1.226960854257978 0.5600604284234054 0
1.252470704079807 0.6038664424080111 0
1.277198987313166 0.55874807111347 0
1.303148970446812 0.6035341865995129 0
1.328130525802366 0.5586520846649797 0
1.353966012915828 0.6034054551655909 0
1.379205474149696 0.558835304845746 0
1.404820923589671 0.6032503772964327 0
1.430092956912838 0.5587079795953892 0
1.455686300628245 0.6030926920218221 0
1.480963489515269 0.5580480170404921 0
1.506562983627252 0.6028436706904448 0
1.531847734917255 0.5577680566445021 0
1.557453558526421 0.6026435181305781 0
1.582745756648754 0.5575726351194972 0
1.608358176126191 0.6024617369905624 0
1.633656322435163 0.5573842056888257 0
1.659277805706528 0.6022873884346892 0
1.684577462424181 0.5572075399874397 0
1.710203504633815 0.6021111834258887 0
1.735506494091908 0.5570246051384745 0
1.761134606493805 0.6019307913070558 0
1.786441498808711 0.5568475628142857 0
1.812072359676459 0.6017522495250318 0
1.837381834584306 0.5566653603575672 0
1.863017119880456 0.601574020443024 0
1.888326681794851 0.5564884669211013 0
1.913963858781491 0.601395113412113 0
1.939274704592935 0.5563067813822595 0
1.964908406083961 0.6012129143420911 0
1.990224566339525 0.5561292537946573 0
2.015859329864652 0.601032757987411 0
2.041177190815608 0.5559477304122714 0
2.066818109147928 0.600855564813206 0
2.09213259478423 0.5557710179709322 0
2.117774443326183 0.6006760179252703 0
2.143088896138059 0.5555900146741853 0
2.168729305797513 0.6004921726308964 0
2.194045774061603 0.5554125217101814 0
2.219686577151481 0.6003111949874665 0
2.245003702950199 0.5552312296013228 0
2.270641766736839 0.6001298880828497 0
2.295962173634055 0.5550546947866846 0
2.321601310982481 0.599950595338254 0
2.346923922781879 0.5548708301001631 0
2.372568004594504 0.5997713467128002 0
2.397895756972162 0.5547000681173012 0
2.423546697517365 0.5996004731097838 0
2.448884659670238 0.5545095609010697 0
2.474538141419978 0.5994220729206983 0
2.499902931415869 0.5543494429014709 0
2.525546234724433 0.5993228147833797 0
2.550973655834774 0.5541346321759457 0
2.576685338327378 0.5992395038842441 0
2.602182482443039 0.5540180644105763 0
2.958944511946492 0.7598964409357507 0
2.628014314012249 0.5990918128353608 0
0.4429170888396284 0.3159793431387367 0
0.4184631156771032 0.357715436029677 0
0.3946070818022522 0.3157219358498637 0
0.3697276561976696 0.3576135465858128 0
2.449044355814981 0.643990885448769 0
2.24531935830005 0.6444881680698032 0
1.024857369602972 0.6487487015028032 0
2.041498164113345 0.6452136474256573 0
1.837701628146142 0.6459229900926835 0
0.3455853078837237 0.3150377509381005 0
0.3204780172155196 0.3574251905568473 0
0.3449438693484468 0.4002519798591844 0
1.633970683060678 0.6466170330762969 0
1.227333380683899 0.6479317947648683 0
1.430444030483603 0.6473399689389928 0
0.875196942148915 0.6483605753517908 0
0.6057010339261732 0.6883083412871458 0
0.5571396249147901 0.6885103796531055 0
2.653543252321963 0.5527758280498023 0
1.099471497978971 0.5148848291986879 0
2.602427017093663 0.6438096025956825 0
2.653851606946175 0.6437140715169269 0
1.353138019780104 0.5138574114565649 0
1.556762689169365 0.5115839513085039 0
1.760509743411542 0.5109012431757174 0
1.964341412665395 0.510388685431229 0
0.2953909602266698 0.4001745965167012 0
[...]
    <PointData>
      <DataArray type="Float64" NumberOfComponents="3" Name="Velocity" format="ascii">
3.000000111643443 0 0
0 0 0
0 0 0
3.210428891173538 0 0
3.211770562208151 0 0
3.000000000000367 0 0
2.999999875160019 0 0
3.000000576580034 0 0
2.999998285497393 0 0
2.999998298681864 0 0
3.000060454873318 0 0
2.999617412455175 0 0
2.999582263195971 0 0
3.024751678555218 0 0
2.906558866173267 0 0
1.738110390379606 0 0
0 0.01187350892677336 0
0 0.002655847941880386 0
0 0.06565781269755085 0
0 0.2025832331112107 0
1.83488579398015 0 0
2.578471053886573 0 0
2.878213009915335 0 0
2.978029779794192 0 0
2.999039445165177 0 0
3.001056730820932 0 0
3.00013150755994 0 0
2.999922566008367 0 0
2.999999803402672 0 0
3.000004947705653 0 0
2.999998932050932 0 0
2.999999898032122 0 0
3.000000142300965 0 0
2.999999948374969 0 0
3.000000014830181 0 0
2.999999995972011 0 0
3.000000001036752 0 0
2.999999999749943 0 0
3.000000000058224 0 0
2.999999999986704 0 0
3.000000000002961 0 0
2.999999999999379 0 0
3.000000000000114 0 0
2.999999999999983 0 0
3.000000000000014 0 0
2.99999999999994 0 0
3.000000000000144 0 0
2.999999999999719 0 0
3.000000000000706 0 0
2.999999999998439 0 0
2.999999999998111 0 0
3.000000000028574 0 0
2.999999999927633 0 0
2.999999999884284 0 0
3.000000001129718 0 0
2.999999996360621 0 0
3.000000013355665 0 0
2.999999950679561 0 0
3.000000092521322 0 0
3.000000446937815 0 0
2.999995698115176 0 0
3.000014517820726 0 0
3.00003429144941 0 0
2.999521718192677 0 0
3.000556802718099 0 0
3.034541900992564 0 0
3.21188498805448 0.0007672860454489569 0
3.201518156648966 -6.180781847442619e-06 0
3.202605335991874 0.0002039839480325578 0
3.202364380055949 -0.0001215882841758915 0
3.204620173514361 -0.0002367452839958406 0
3.206912518230515 -0.0001381600407730199 0
3.204868334957783 0.0001258528342129975 0
3.204144720154946 -0.0003592157251860472 0
3.207789114017624 -1.066610733820461e-05 0
3.205610223187168 0.000154631353178002 0
3.206946416841771 0.0001429099276544213 0
3.203590479146937 5.168740833109918e-05 0
3.202067466520546 -0.000916250438759128 0
3.213732505280583 -0.0006604620303487227 0
3.030473791773438 0 0
3.000800996823108 0 0
2.999581785856151 0 0
3.000023949262348 0 0
3.000009248776401 0 0
2.999997108397279 0 0
3.000000236723077 0 0
3.000000086182465 0 0
2.999999961551475 0 0
3.000000010430744 0 0
2.999999996928862 0 0
3.000000000774082 0 0
3.000000000010964 0 0
2.999999999928444 0 0
3.000000000014009 0 0
3.000000000004318 0 0
2.999999999997107 0 0
3.000000000000553 0 0
3.00000000000009 0 0
2.999999999999885 0 0
3.000000000000057 0 0
2.99999999999998 0 0
3.000000000000005 0 0
2.999999999999999 0 0
3.000000000000001 0 0
3 0 0
3.000000000000002 0 0
3.000000000000004 0 0
2.999999999999991 0 0
2.999999999999991 0 0
3.000000000000069 0 0
2.999999999999956 0 0
2.999999999999731 0 0
3.000000000000366 0 0
3.000000000000741 0 0
2.999999999998441 0 0
2.999999999998922 0 0
3.000000000005069 0 0
3.000000000002371 0 0
2.999999999988339 0 0
2.999999999985977 0 0
3.000000000008527 0 0
3.000000000033554 0 0
3.000000000038142 0 0
3.000000000025149 0 0
3.00000000001458 0 0
3.000000000010631 0 0
3.000000000007104 0 0
3.000000000001632 0 0
3.000000000003419 0 0
3.000000000001642 0 0
2.999999999996191 0 0
3.000000000001401 0 0
2.999999999999516 0 0
2.999999999999829 0 0
3.000000000000324 0 0
2.999999999999872 0 0
2.999999999999929 0 0
3.000000000000292 0 0
2.999999999999121 0 0
2.999999999998593 0 0
3.000000000018973 0 0
2.999999999989315 0 0
3.000000000105225 0 0
2.999999999924694 0 0
2.999999999611244 0 0
3.000000000190696 0 0
3.000000000015336 0 0
2.999999998782294 0 0
2.99999999499157 0 0
2.999999991983443 0 0
3.000000005013463 0 0
3.000000027759289 0 0
3.000000048722357 0 0
3.000000054857242 0 0
3.000000065276662 0 0
2.9999999999911 1.620619436795846e-11 0
1.908350963108009 0.3144021635805396 0
2.999999999923621 -4.127435418122976e-11 0
2.999999961622723 -5.117955249188324e-09 0
2.999999999597183 -1.492337900873134e-11 0
3.000000000002484 5.173192394082476e-13 0
2.999999999999964 -2.448772153202883e-14 0
3 -2.864466954894105e-15 0
2.999999999999994 -1.549628872207359e-15 0
3.000000000000267 -6.687634026268836e-14 0
3.000000000004432 1.180175256686226e-13 0
3.000000000081584 -1.74737331603006e-11 0
2.999916214775086 3.674259397827366e-06 0
3.000000001956356 2.294492031245758e-10 0
2.999999999987236 -5.65099180875049e-13 0
3.000000000000224 4.426854233876125e-14 0
3.000000000000013 1.536656080927895e-14 0
3.000000000001902 -7.150467889162607e-14 0
2.999999998985495 2.03381334738529e-11 0
3.000000253452582 -1.485214340231387e-08 0
2.108714783408692 0.3144968844711763 0
2.598780177790825 0.2419157341909936 0
3.044324978127238 -9.045866210277882e-05 0
2.778959261083885 0.12266042527519 0
2.915387711244921 0.07282974533040742 0
2.974109654102222 0.01951496608258654 0
2.992447582161682 0.008903631623518022 0
2.999998235089745 -4.362814474134174e-08 0
3.000057250546734 0.0006024822529531857 0
3.000379400494972 -2.570281266481736e-05 0
2.999497896953612 0.001592338149940665 0
3.000284092093422 -0.0002975710898837497 0
3.000380565583786 -0.0004285327213572367 0
3.00004337825442 -0.0001129368542896196 0
3.000096778807527 -0.0002590152745253142 0
2.99999022564197 -1.632300998424e-05 0
2.999999999999212 5.072466176473802e-13 0
3.000000000031216 7.035366024371142e-12 0
2.999989566679853 1.370335831550681e-05 0
2.999997818689283 -6.655576683349979e-06 0
2.999999973983712 -5.493781874236827e-07 0
3.000000007049942 -2.269303821329119e-09 0
2.999996758426961 1.39011649094791e-05 0
2.999998993515623 1.657480247490918e-05 0
2.999999999980878 2.068877956268892e-12 0
3.000007783758869 2.920005553771903e-06 0
2.999997011100727 -9.650775320099671e-06 0
3.000002115881578 1.372999343814492e-05 0
2.999999951015674 -1.556421395890141e-07 0
3.000000476757049 -1.39150466543499e-06 0
3.053859565481646 -0.0001745827182263357 0
2.999995063683107 5.751543575122343e-06 0
3.0000033724808 7.35642091787403e-06 0
3.000282510002572 0.0005718833023851374 0
3.000600561773423 -0.0003631164555570882 0
3.000000534234587 1.67754543791113e-05 0
3.000002291383591 1.087436810435379e-06 0
3.00000008789721 -7.747603466477523e-07 0
3.000000051401615 -3.272104163140474e-07 0
2.99999934919959 -1.628580111729605e-06 0
2.999999244207994 -9.079319557612572e-07 0
3.000000159333536 -1.708423132460253e-06 0
2.999999581790066 -7.908482705040467e-08 0
2.999998910161147 -1.244241470870576e-06 0
3.000000043707835 2.534463175556559e-07 0
2.99999942838966 9.303367716542425e-08 0
3.000000184184725 9.342864890052099e-08 0
3.000000086081766 3.527852034205944e-07 0
3.000000039909167 -6.81662674130635e-08 0
3.000000171666969 -3.310509834373138e-08 0
2.999999959141489 -2.487944215034599e-08 0
3.000000015592922 -7.700304231515224e-08 0
2.999999986109687 2.070796786844546e-08 0
2.999999968719784 1.396814353979742e-08 0
3.000000006412187 9.200823365397587e-10 0
2.999999994587791 9.589023954447306e-09 0
3.000000003148451 -3.92811654840776e-09 0
3.000000007384898 -4.719635211762207e-09 0
2.999999997838048 1.272217250281878e-09 0
2.999999998571978 6.065068140786802e-10 0
3.000000000292719 -5.715509048119854e-11 0
2.999999999649894 1.645172118730062e-10 0
3.000000000183039 -1.026040852114253e-10 0
3.000000000303752 -1.062391074238632e-10 0
2.999999999864865 5.350813494454683e-11 0
2.999999999877501 3.586482035776482e-11 0
3.000000000054251 -1.805667918319724e-11 0
3.000000000038977 -1.002832145017269e-11 0
2.999999999983272 5.085382299990018e-12 0
2.999999999988541 2.648385853419937e-12 0
3.000000000004551 -1.331638311403706e-12 0
3.00000000000334 -6.875214467089379e-13 0
2.999999999998782 3.458965715793182e-13 0
2.999999999999063 1.68508483701544e-13 0
3.000000000000335 -8.862654234056306e-14 0
3.000000000000246 -3.824263538157518e-14 0
2.999999999999913 2.309900391418552e-14 0
2.99999999999994 7.532075384578087e-15 0
3.000000000000022 -5.163678019927082e-15 0
3.000000000000013 -1.089320338460517e-15 0
2.999999999999986 -1.046428909350874e-15 0
3.000000000000004 -4.051827936242417e-15 0
3.000000000000027 1.33384277697512e-14 0
2.999999999999966 1.572996975907909e-14 0
2.999999999999956 -4.466879155822289e-14 0
3.000000000000091 -3.588184755739696e-14 0
3.000000000000026 8.862943652934716e-14 0
2.999999999999804 5.554278918864398e-14 0
3.000000000000185 -9.922607618877367e-14 0
3.000000000000482 -6.769708972831154e-14 0
2.999999999998441 -1.45114444211563e-14 0
2.99999999999977 1.180398416487659e-13 0
3.00000000000633 2.676258061566375e-13 0
2.999999999993401 -3.975632670775062e-13 0
2.99999999999004 -3.214590609008759e-13 0
3.000000000031832 1.159767275129839e-12 0
2.999999999971159 -4.828263735586992e-13 0
2.999999999963628 -2.123336564663327e-12 0
3.000000000171947 1.879106740113199e-12 0
2.999999999781977 2.270446308641237e-12 0
2.999999999851032 -1.056397866400123e-12 0
3.000000000961185 -6.270699751255688e-12 0
2.999999998900219 -1.890327938640858e-12 0
2.99999999813772 5.431307716658766e-11 0
3.000000005282012 -4.706213139635184e-12 0
3.000000007083756 -4.144090618279042e-10 0
2.999999980893815 -2.068769818320484e-11 0
2.999999958595396 2.624008619354942e-09 0
3.000000040972195 7.308068197464612e-10 0
3.000000217353846 -7.199243562504066e-09 0
3.063169500465491 0.0001278306615545043 0
3.000000109649743 -4.748837037391028e-09 0
3.001006973183186 -0.0004113629379447648 0
2.999956404561819 -1.094951418936187e-05 0
2.999932479180647 -2.905052080722359e-06 0
2.999967126010126 1.441780768177728e-05 0
2.99999999819416 -4.60979467092222e-11 0
3.000000000033284 2.836713231934779e-13 0
2.999999957216701 -3.361765542800013e-08 0
2.999999999999508 -1.957885703413199e-13 0
3.000000000000004 5.469803271156566e-15 0
2.999976424315828 7.873627388167069e-06 0
3.00000641173762 -9.580477075197417e-07 0
3.000004470873423 -4.923900278297785e-07 0
2.999999999998776 4.288990389698564e-13 0
2.999999998138466 -6.105405924395585e-10 0
2.999999999957279 3.220735323953373e-11 0
3.000000101896283 1.931462090684449e-07 0
2.999999986910569 1.651245657044931e-07 0
2.999999964679569 1.280283662954479e-07 0
2.999999266122472 -1.477014101097308e-08 0
3.000000145617564 1.194860778667619e-07 0
3.000000206487464 4.209470514090573e-09 0
2.999999266179445 2.006031526474755e-08 0
2.999999998889795 4.80432665725963e-10 0
3.000000000013165 -1.443721936581158e-12 0
3.000000000000042 5.857982485475062e-15 0
3.00000000000002 4.256272993097213e-14 0
3.000000659023349 -5.112930363754977e-07 0
3.000000596761167 -5.3369228444027e-07 0
3.000000000004545 6.56212536201001e-14 0
2.99999999995419 -1.283428381246542e-11 0
3.000000036796539 8.183525117912483e-10 0
2.999964753278825 -0.0001173658781595709 0
3.000000504907291 -2.586844300422977e-06 0
3.000000187634429 1.806685473759601e-08 0
2.999998129780816 -1.986999295208433e-08 0
2.999999998494165 -5.367786368383778e-09 0
2.999999990928116 3.002945241359313e-08 0
3.000000008445226 -2.363016578184161e-08 0
2.999999992156966 3.672059085420608e-08 0
3.000000006408237 -1.388245508577337e-08 0
3.00000001952918 -1.544638748207086e-08 0
2.999999996932535 1.350178499853801e-09 0
3.000000010138653 -1.462287041310899e-08 0
2.999999997178536 3.419909883656438e-09 0
2.999999994349256 2.095950589974925e-09 0
3.000000001476102 -6.061944090858093e-10 0
2.999999998459525 2.638791745076861e-09 0
1.102710156431792 0.08612627482254613 0
3.001032155716714 -0.0002955131220609234 0
2.999999999943727 -4.197577593936488e-10 0
3.000006374318426 -1.253334963737929e-06 0
2.999829278308335 -1.866091836378016e-05 0
2.999999719750472 7.598283253764954e-08 0
2.997081305884605 0.003226176352169254 0
3.00000000160852 -1.066655502565138e-09 0
2.999999365300895 1.963714996852411e-09 0
3.000000236017252 -2.141926231368929e-09 0
2.999998543682785 1.473692464283825e-08 0
3.000006640060843 -4.192216934900442e-07 0
2.80517174276817 0.06806272807552478 0
3.000000001562172 -3.973019355319549e-09 0
2.999993238625883 2.396183757177105e-07 0
3.000000001589433 -2.310811140302191e-11 0
2.999999989270047 -1.765436430303616e-10 0
3.000008944769304 -3.042466286390535e-06 0
3.000002715591463 -5.840953957371789e-07 0
2.99999999999698 1.652868073162583e-12 0
2.999999999959983 1.046624703976291e-11 0
2.999999999998282 -5.952498163713785e-13 0
2.999999999999979 4.599252060101431e-15 0
2.999999999999943 2.486764010774934e-14 0
2.99999999998275 6.361858550966055e-12 0
3.000000000004668 -5.065103354685262e-13 0
3.000000000000021 4.783872462452311e-14 0
2.999999999591581 3.024110024613185e-11 0
2.999999999984158 -4.507214768223703e-13 0
3.000000000000265 -1.018638680093959e-15 0
3.000009159605368 -1.042768383624557e-06 0
2.999999994944019 -3.064578381646447e-11 0
3.000000000578298 -3.493405096964584e-10 0
2.999999999999331 1.497904580617776e-13 0
2.99999999999998 1.49025228051811e-14 0
3.000000001468569 -6.864000541069368e-11 0
2.999999999988014 -1.989106472662611e-12 0
2.999999999998613 1.413283777340351e-13 0
3.000000000015036 -2.32112966851446e-13 0
3.000000000000003 -5.906362703468984e-16 0
3.000000000000009 -1.761715020533915e-14 0
2.999999999999516 -2.155052508119562e-14 0
3.000000011754441 8.736638907696596e-09 0
3.000000000000316 7.550973348926385e-14 0
2.999999999999995 7.747285798981848e-15 0
3.000000000001063 -4.109772485010982e-14 0
3.000000000097625 -1.743379837446471e-11 0
2.999999999790961 -1.984984031778735e-12 0
2.999999999965759 -2.559268249134437e-13 0
2.999999980025986 -3.988951969490172e-09 0
2.999999924381832 7.330363906926755e-09 0
3.000000030602655 -1.956604848838035e-08 0
2.999854920153117 5.147157457903197e-06 0
3.006346217525592 -4.366622235740863e-05 0
3.000000006152674 -1.270112425928483e-10 0
2.999999672226869 6.658190629334789e-08 0
3.000000000343705 -6.457500293248749e-10 0
2.99781804384926 0.005070761380536326 0
3.000000009270109 2.38454407221593e-08 0
2.999999999770238 2.855164931603644e-10 0
2.999999993303415 3.678759702461055e-09 0
3.00000000142638 3.322151486865179e-10 0
3.000021183436259 -1.024000209740996e-07 0
3.000000166074949 -1.56523517472805e-08 0
3.00000003802566 4.104899542521026e-11 0
2.999999998299241 2.881573134751984e-09 0
2.999999999980123 -2.176014668982822e-11 0
2.999999890218925 1.403075258394835e-07 0
3.0000163816182 9.05253947339722e-07 0
3.000000000149346 -2.243434508751851e-11 0
3.000002886025988 -6.919510875978324e-07 0
3.000028783609062 -6.152798057507151e-06 0
2.999998651879041 3.341765658814299e-08 0
2.999998354610153 3.783545246458784e-07 0
3.000006263905655 2.450090196699273e-07 0
3.000015877137614 -6.027117321605363e-07 0
3.054937231108947 0.0004692937853458781 0
3.04127964477585 -0.0005544013749645754 0
3.000000351823103 -4.168285848464383e-07 0
2.999999999976378 -3.303486186051143e-11 0
2.99996591880368 -2.114685891407042e-05 0
3.000051005264134 -0.0002857447609895462 0
2.999941621257995 -0.0001416235004349297 0
3.000023878848937 3.57260183757509e-08 0
2.999999963760699 -9.315001093038729e-07 0
2.667763631720173 0.1109292359037268 0
3.000002348422288 -1.069773364594603e-06 0
3.000000012215689 1.427035887262154e-08 0
3.000000018492716 -9.837567314572348e-09 0
3.000000018401966 -1.243267555012414e-08 0
2.999999178189615 2.246395684716788e-07 0
2.999999999962793 2.806756913477391e-11 0
3.000451968176651 -0.0004013803470983433 0
2.999999832074675 -0.0002927261470692579 0
3.000549516398456 0.001595627214143378 0
2.999885472779638 7.006550220104419e-06 0
3.000002080576804 -5.563329557073777e-07 0
3.00000000001772 -4.892948867829913e-12 0
3.000000000152853 -1.051078128565686e-10 0
3.000000180955719 -7.21143532977191e-09 0
2.999999963862936 2.116889571564638e-09 0
2.999999978295543 6.924649257838372e-10 0
3.00000000649176 -3.438859873477158e-10 0
3.000000006165175 -2.539930425388617e-10 0
2.999999998025142 5.612645750904428e-11 0
2.999999998653876 5.580520834845251e-11 0
3.000000000874842 -1.452403282284024e-11 0
2.999999999934289 -1.664503780016745e-11 0
2.99999999986512 1.443618858736306e-11 0
3.000000000134079 4.048946205239439e-12 0
2.999999999951259 -8.263649341617284e-12 0
2.999999999985202 5.254309725068903e-13 0
3.000000000022651 1.965115388399328e-12 0
2.999999999985649 -3.129648140301409e-13 0
3.000000000000797 -7.84287366388273e-14 0
3.000000000007602 -3.055367496560645e-13 0
2.999999999996245 4.394233869507087e-14 0
2.999999999998408 3.837735892534047e-13 0
3.000000000001731 -1.551410051973198e-13 0
2.99999999999986 -2.359239415056578e-13 0
2.999999999999558 1.489918683830507e-13 0
3.000000000000267 8.999952007028123e-14 0
3.000000000000041 -9.850845711085645e-14 0
2.999999999999869 -7.894292274274844e-15 0
3.000000000000024 5.062415809608458e-14 0
3.000000000000042 -1.792922479531041e-14 0
2.999999999999987 -1.995687384014038e-14 0
2.999999999999993 1.692798667415541e-14 0
3.000000000000003 5.025498611953357e-15 0
2.999999999999996 -8.49995543991888e-15 0
3 8.218414424591562e-16 0
3.000000000000009 1.177977718135813e-15 0
2.999999999999997 -6.261380100014527e-16 0
3.000000000000003 -1.800935279451304e-15 0
3.000000000000018 -6.946030367356266e-15 0
2.999999999999929 2.851231766584305e-14 0
2.999999999999957 2.826846008121553e-14 0
3.000000000000224 -1.206730878585832e-13 0
3.000000000000003 -5.520843536569552e-14 0
2.999999999999773 2.763333076898258e-13 0
3.000000000000278 -1.224719412296802e-14 0
2.999999999999208 -1.459538306518301e-13 0
2.999999999999371 3.620946635193566e-13 0
3.000000000003278 -1.354480044460817e-12 0
2.999999999999493 -8.059585549773148e-13 0
2.999999999998035 4.668721626998517e-12 0
3.000000000004476 -1.905385968278952e-13 0
2.999999999984716 -3.76352145618683e-12 0
2.999999999997676 4.31036848029173e-12 0
3.000000000027543 -1.627383985144005e-11 0
2.999999999974233 -4.963868414810997e-12 0
3.000000000073825 4.163918143917402e-11 0
3.000000000044701 -1.341259378412601e-11 0
2.999999999741892 2.595292611296041e-11 0
3.000000000071089 3.233801163310746e-11 0
2.999999999907712 -1.929642701132213e-10 0
2.999999999791255 1.162174178258567e-11 0
3.000000000950037 9.046852033569502e-11 0
2.999999999981266 -9.791890138357611e-11 0
2.99999999935056 4.060388820508465e-10 0
3.000000000633436 1.409260288845583e-10 0
2.999999997709096 -1.084321850698136e-09 0
2.999999999806207 2.49755159617286e-10 0
3.000000002207685 -5.407008878803642e-10 0
2.999999998456831 -7.37314359158658e-10 0
3.000000006103476 4.327715520585627e-09 0
2.999999999054722 -8.760615415806818e-10 0
3.000000003940104 4.292257419853405e-09 0
3.000000001337246 1.371624709695669e-09 0
2.999999997894891 -3.59619937639816e-09 0
3.000000003088799 3.987649916542703e-09 0
3.000021727505683 -3.272874780525999e-07 0
2.999905623992647 -3.445104684904667e-06 0
2.999999993284812 -2.393183076029993e-10 0
2.999999997390432 2.85522848675163e-09 0
3.000020479420929 -3.667243029144837e-06 0
2.999976092687188 4.295533514619271e-06 0
2.999705176771273 8.356959849157946e-06 0
2.999999993259781 -1.424807439327394e-08 0
3.00000000258755 4.473367208756571e-09 0
2.999999988008906 -1.669172323046466e-08 0
3.00000029687343 -4.376738677862471e-08 0
2.999597097077431 2.516299659675687e-06 0
2.99990068082941 -6.592726239769644e-06 0
2.999517956453333 -3.513849476284191e-06 0
2.999698639955866 -1.301546206615878e-07 0
3.000016898271125 -8.366478334376082e-07 0
2.999940585494044 3.929472856579304e-06 0
3.000021358329054 -5.133562127364435e-07 0
3.000018605675488 2.360726692026294e-06 0
3.000008915239507 -8.193034539005445e-07 0
3.000027538390408 8.671146822444185e-08 0
2.999999700821752 -1.780842072660522e-08 0
2.999834551241576 -2.779439080240897e-07 0
2.999997905285585 -4.256773892819595e-08 0
2.999999352838503 -5.517445297796387e-10 0
2.999999891597366 -1.262112362971965e-07 0
3.0000012970417 -1.05721269049326e-06 0
2.999999994242978 2.177740968225686e-09 0
2.999999999754435 -2.021082229630954e-10 0
2.999999806178762 -1.45614965222192e-09 0
3.000000000000189 -2.890011867230824e-14 0
2.348821863517583 -0.005623920285803909 0
3.000000167174172 2.100665894393089e-08 0
3.000000199029576 3.390399378032927e-09 0