<?xml version="1.0"?>
<VTKFile type="UnstructuredGrid">
  <UnstructuredGrid>
  <Piece NumberOfPoints="1224"  NumberOfCells="2290">
    <Points>
      <DataArray type="Float64" NumberOfComponents="3" format="ascii">
0 0 0
0.6 0 0
0.6 0.2 0
3 0.2 0
3 1 0
0 1 0
0.05454545454535233 0 0
0.1090909090906768 0 0
0.1636363636359771 0 0
0.2181818181812728 0 0
0.2727272727265793 0 0
0.3272727272720317 0 0
0.3818181818176247 0 0
0.4363636363632168 0 0
0.4909090909088285 0 0
0.5454545454544089 0 0
0.6 0.03999999999991203 0
0.6 0.07999999999979179 0
0.6 0.1199999999997886 0
0.6 0.1599999999998948 0
0.6510638297871261 0.2 0
0.7021276595742618 0.2 0
0.7531914893613819 0.2 0
0.8042553191485237 0.2 0
0.8553191489356438 0.2 0
0.9063829787228289 0.2 0
0.957446808509926 0.2 0
1.008510638297009 0.2 0
1.059574468084092 0.2 0
1.110638297871174 0.2 0
1.161702127658257 0.2 0
1.21276595744534 0.2 0
1.263829787232422 0.2 0
1.314893617019505 0.2 0
1.365957446806588 0.2 0
1.417021276593671 0.2 0
1.468085106380754 0.2 0
1.519148936167923 0.2 0
1.570212765955006 0.2 0
1.621276595742088 0.2 0
1.672340425529171 0.2 0
1.723404255316254 0.2 0
1.774468085103337 0.2 0
1.825531914890624 0.2 0
1.876595744677951 0.2 0
1.927659574465349 0.2 0
1.978723404252714 0.2 0
2.029787234040074 0.2 0
2.080851063827477 0.2 0
2.131914893614798 0.2 0
2.182978723402204 0.2 0
2.234042553189523 0.2 0
2.285106382976928 0.2 0
2.336170212764247 0.2 0
2.387234042551653 0.2 0
2.438297872338975 0.2 0
2.489361702126377 0.2 0
2.540425531913739 0.2 0
2.591489361701102 0.2 0
2.642553191488421 0.2 0
2.693617021275827 0.2 0
2.744680851063146 0.2 0
2.795744680850551 0.2 0
2.84680851063787 0.2 0
2.897872340425276 0.2 0
2.948936170212618 0.2 0
3 0.2533333333332341 0
3 0.3066666666664725 0
3 0.3599999999996274 0
3 0.413333333332804 0
3 0.4666666666659806 0
3 0.5199999999991571 0
3 0.5733333333323336 0
3 0.6266666666656895 0
3 0.6799999999991551 0
3 0.7333333333326146 0
3 0.7866666666660802 0
3 0.8399999999995775 0
3 0.8933333333330373 0
3 0.9466666666664969 0
2.949152542373491 1 0
2.898305084746983 1 0
2.847457627120474 1 0
2.796610169493702 1 0
2.745762711866469 1 0
2.694915254239208 1 0
2.644067796611963 1 0
2.593220338985156 1 0
2.542372881358647 1 0
2.491525423732018 1 0
2.44067796610481 1 0
2.389830508477549 1 0
2.338983050850287 1 0
2.288135593223026 1 0
2.237288135595765 1 0
2.186440677968504 1 0
2.135593220341243 1 0
2.084745762713982 1 0
2.033898305086721 1 0
1.983050847459614 1 0
1.932203389832729 1 0
1.881355932205844 1 0
1.830508474578958 1 0
1.779661016952073 1 0
1.728813559325189 1 0
1.677966101698303 1 0
1.627118644071418 1 0
1.576271186444533 1 0
1.525423728817648 1 0
1.474576271190575 1 0
1.423728813563314 1 0
1.372881355936053 1 0
1.322033898308791 1 0
1.27118644068153 1 0
1.220338983054269 1 0
1.169491525427008 1 0
1.118644067799747 1 0
1.067796610172485 1 0
1.016949152545224 1 0
0.9661016949179628 1 0
0.9152542372907018 1 0
0.8644067796634407 1 0
0.8135593220361792 1 0
0.7627118644089181 1 0
0.7118644067816566 1 0
0.661016949154396 1 0
0.6101694915271345 1 0
0.5593220338998739 1 0
0.5084745762726124 1 0
0.4576271186453518 1 0
0.4067796610180903 1 0
0.3559322033908292 1 0
0.3050847457635677 1 0
0.2542372881363066 1 0
0.2033898305090456 1 0
0.1525423728817841 1 0
0.101694915254523 1 0
0.05084745762726151 1 0
0 0.9473684210524125 0
0 0.8947368421048248 0
0 0.8421052631576025 0
0 0.7894736842105994 0
0 0.7368421052635962 0
0 0.6842105263165927 0
0 0.6315789473695894 0
0 0.5789473684225861 0
0 0.5263157894755828 0
0 0.4736842105282874 0
0 0.4210526315806998 0
0 0.3684210526331123 0
0 0.3157894736855248 0
0 0.2631578947379374 0
0 0.21052631579035 0
0 0.1578947368427625 0
0 0.1052631578951749 0
0 0.05263157894758741 0
0.4374856279758046 0.955462795473483 0
0.625531914893563 0.2394317949808221 0
0.7891616249544176 0.9557759867023439 0
2.570562443351098 0.9559758769411787 0
2.364406779663917 0.9559648099769389 0
2.161016949154874 0.9559648099769389 0
1.957627118646171 0.9559648099772646 0
1.756856606547665 0.9560078743553572 0
1.553415402058453 0.9561420672712786 0
1.347457627122422 0.95627738856474 0
1.144067796613377 0.9563034567995272 0
0.04146670856173688 0.5498854761242812 0
0.9828861012149002 0.2442383967812095 0
2.465390809289578 0.2421522008426663 0
2.259572257543314 0.243586373321511 0
2.055319178697841 0.24363095694403 0
1.851066099915384 0.2436741865527954 0
1.646810778591931 0.2437170671454607 0
1.442550972205278 0.2437587738062726 0
1.238275543433999 0.2442249255777628 0
0.5808319854219957 0.2417757800606361 0
0.6039807146029165 0.2785115072887754 0
2.951522810440164 0.5995349944823752 0
0.5591131416216563 0.2791940688436214 0
0.5817690965011905 0.3180386921514113 0
0.5363223429032008 0.3181181454258206 0
0.5590799034518541 0.3577335228902347 0
2.671507320584846 0.2416532643303031 0
0.5129751095268966 0.3576683284772433 0
0.5360042291720796 0.3976917483469583 0
0.5824744072527975 0.3977458985417416 0
0.5593202208963615 0.4382323507424581 0
0.6062221806132498 0.4382172989803606 0
0.5831398502988122 0.4790536480492864 0
0.630245509211025 0.4792447281197085 0
0.5373735766893435 0.4817209888486334 0
0.2780994584865757 0.9660670791366374 0
0.9407829849899363 0.9559852449915113 0
0.6069171020766708 0.5203953730037822 0
0.6544691944766102 0.5205851219036783 0
2.724115018794794 0.9563165682871465 0
0.04341732373162228 0.2894490564426765 0
0.6304562046384772 0.5622881188475496 0
0.6786259291441818 0.5621981517123112 0
0.03938236249337418 0.7091098825652095 0
0.2999999999993055 0.04723774929726795 0
0.7024556039582556 0.5200372393771872 0
0.726826368578132 0.562505099575485 0
0.6545296629344706 0.6041261864689124 0
0.6061411599039735 0.6041581669226386 0
2.954333097254252 0.4393531299125908 0
0.7512905139641642 0.5199435586712576 0
0.7757938242112172 0.5624873891767795 0
0.4902278874550028 0.3174350849704655 0
0.4661669324669476 0.3576870257641042 0
0.8003371868304782 0.5195844107098163 0
0.8251782158071723 0.5621174250913318 0
0.6300572939290072 0.6460588488486728 0
0.581677101888915 0.6462390077748084 0
0.7994632498085218 0.6067218912904607 0
0.850068894442807 0.6047738158182728 0
0.8747482025846163 0.5617915498272615 0
0.8998102571129438 0.6045430073239006 0
0.924588798996443 0.5614360364847856 0
0.9497125983499418 0.6046345614192383 0
0.9744389394813738 0.5613114208485291 0
0.9997656958801404 0.604758732930365 0
1.024028015453996 0.5597386087889248 0
1.050046148741532 0.6042836632406788 0
1.075213347289947 0.5607219500906248 0
1.100604808237692 0.6043040651294929 0
1.125727120818654 0.5598592244124957 0
1.151165990249003 0.6040638744783449 0
1.176319565514503 0.5595216793632644 0
1.201793840633129 0.6038781229769293 0
1.226960854257978 0.5600604284234054 0
1.252470704079807 0.6038664424080111 0
1.277198987313166 0.55874807111347 0
1.303148970446812 0.6035341865995129 0
1.328130525802366 0.5586520846649797 0
1.353966012915828 0.6034054551655909 0
1.379205474149696 0.558835304845746 0
1.404820923589671 0.6032503772964327 0
1.430092956912838 0.5587079795953892 0
1.455686300628245 0.6030926920218221 0
1.480963489515269 0.5580480170404921 0
1.506562983627252 0.6028436706904448 0
1.531847734917255 0.5577680566445021 0
1.557453558526421 0.6026435181305781 0
1.582745756648754 0.5575726351194972 0
1.608358176126191 0.6024617369905624 0
1.633656322435163 0.5573842056888257 0
1.659277805706528 0.6022873884346892 0
1.684577462424181 0.5572075399874397 0
1.710203504633815 0.6021111834258887 0
1.735506494091908 0.5570246051384745 0
1.761134606493805 0.6019307913070558 0
1.786441498808711 0.5568475628142857 0
1.812072359676459 0.6017522495250318 0
1.837381834584306 0.5566653603575672 0
1.863017119880456 0.601574020443024 0
1.888326681794851 0.5564884669211013 0
1.913963858781491 0.601395113412113 0
1.939274704592935 0.5563067813822595 0
1.964908406083961 0.6012129143420911 0
1.990224566339525 0.5561292537946573 0
2.015859329864652 0.601032757987411 0
2.041177190815608 0.5559477304122714 0
2.066818109147928 0.600855564813206 0
2.09213259478423 0.5557710179709322 0
2.117774443326183 0.6006760179252703 0
2.143088896138059 0.5555900146741853 0
2.168729305797513 0.6004921726308964 0
2.194045774061603 0.5554125217101814 0
2.219686577151481 0.6003111949874665 0
2.245003702950199 0.5552312296013228 0
2.270641766736839 0.6001298880828497 0
2.295962173634055 0.5550546947866846 0
2.321601310982481 0.599950595338254 0
2.346923922781879 0.5548708301001631 0
2.372568004594504 0.5997713467128002 0
2.397895756972162 0.5547000681173012 0
2.423546697517365 0.5996004731097838 0
2.448884659670238 0.5545095609010697 0
2.474538141419978 0.5994220729206983 0
2.499902931415869 0.5543494429014709 0
2.525546234724433 0.5993228147833797 0
2.550973655834774 0.5541346321759457 0
2.576685338327378 0.5992395038842441 0
2.602182482443039 0.5540180644105763 0
2.958944511946492 0.7598964409357507 0
2.628014314012249 0.5990918128353608 0
0.4429170888396284 0.3159793431387367 0
0.4184631156771032 0.357715436029677 0
0.3946070818022522 0.3157219358498637 0
0.3697276561976696 0.3576135465858128 0
2.449044355814981 0.643990885448769 0
2.24531935830005 0.6444881680698032 0
1.024857369602972 0.6487487015028032 0
2.041498164113345 0.6452136474256573 0
1.837701628146142 0.6459229900926835 0
0.3455853078837237 0.3150377509381005 0
0.3204780172155196 0.3574251905568473 0
0.3449438693484468 0.4002519798591844 0
1.633970683060678 0.6466170330762969 0
1.227333380683899 0.6479317947648683 0
1.430444030483603 0.6473399689389928 0
0.875196942148915 0.6483605753517908 0
0.6057010339261732 0.6883083412871458 0
0.5571396249147901 0.6885103796531055 0
2.653543252321963 0.5527758280498023 0
1.099471497978971 0.5148848291986879 0
2.602427017093663 0.6438096025956825 0
2.653851606946175 0.6437140715169269 0
1.353138019780104 0.5138574114565649 0
1.556762689169365 0.5115839513085039 0
1.760509743411542 0.5109012431757174 0
1.964341412665395 0.510388685431229 0
0.2953909602266698 0.4001745965167012 0
[...]
    <PointData>
      <DataArray type="Float64" NumberOfComponents="3" Name="Velocity" format="ascii">
3.000000145262843 0 0
0 0 0
0 0 0
3.241110910904738 0 0
3.240835992958345 0 0
3.000000000233306 0 0
2.99999977899362 0 0
2.999999214089969 0 0
3.000016120618927 0 0
3.000140100589655 0 0
2.99850617168855 0 0
2.960055738336332 0 0
2.654444649205175 0 0
1.769832526733691 0 0
0.7315212264288398 0 0
0.1789503536541496 0 0
0 0.1297316763657266 0
0 0.2414914349347026 0
0 0.3773792842183091 0
0 0.5429094086758816 0
1.370496014548021 0 0
1.904227890678801 0 0
2.195015564269402 0 0
2.414934257880738 0 0
2.572259618792534 0 0
2.706154436842784 0 0
2.802120468504699 0 0
2.871598472064806 0 0
2.919810925241142 0 0
2.951625796893667 0 0
2.971250783320385 0 0
2.984023947944994 0 0
2.991921786670685 0 0
2.995795081387033 0 0
2.997899143387915 0 0
2.999054997991758 0 0
2.999596277699021 0 0
2.999850690388676 0 0
2.999955338125648 0 0
2.999990387413086 0 0
2.999999788648216 0 0
3.000000689684691 0 0
3.000000285496823 0 0
3.000000012444203 0 0
2.999999976304462 0 0
2.999999996642781 0 0
3.000000001515062 0 0
2.999999999761529 0 0
3.000000000011497 0 0
3.000000000035818 0 0
3.000000000029857 0 0
2.999999999848146 0 0
3.000000000066629 0 0
3.000000000286677 0 0
2.99999999949943 0 0
3.000000000324988 0 0
3.00000000021971 0 0
3.000000006185924 0 0
2.999999937618659 0 0
2.999999563347815 0 0
3.000000171702362 0 0
3.000019896686912 0 0
3.000215356875325 0 0
3.001459808773018 0 0
3.009080693382612 0 0
3.058163793803121 0 0
3.242033272513801 0.001762025470139225 0
3.231907641291682 0.001215025549064381 0
3.233412276873148 0.001007005596059515 0
3.233748911891048 0.0001029268828788441 0
3.236658885995329 -0.0004683976142801161 0
3.23854270234999 -0.0007038381653451742 0
3.235996212794026 -0.0003814600763404734 0
3.234960693837487 -0.0005057674961333818 0
3.238619251261017 -7.255449185071636e-05 0
3.236670063701043 -4.274728756529843e-05 0
3.237447457287841 -0.0003248880499860245 0
3.233829785672822 -0.0007866885074207872 0
3.231024626274285 -0.001845714982389762 0
3.241881191560469 -0.001356253119348008 0
3.053386736654689 0 0
3.00962310816033 0 0
3.001514472018686 0 0
3.000212041106243 0 0
3.000023159073592 0 0
3.000001062972428 0 0
2.999999709510858 0 0
2.999999926029882 0 0
3.000000001467429 0 0
3.000000000796238 0 0
3.000000000054729 0 0
2.999999999576439 0 0
3.000000000302932 0 0
3.000000000027306 0 0
2.999999999877562 0 0
3.000000000028002 0 0
3.000000000021788 0 0
2.999999999995338 0 0
2.999999999990604 0 0
3.000000000008826 0 0
2.999999999985997 0 0
3.00000000002329 0 0
2.999999999990706 0 0
2.999999999950413 0 0
3.000000000053737 0 0
3.000000000223865 0 0
2.999999999511563 0 0
2.999999999165349 0 0
3.000000002544149 0 0
3.000000006945545 0 0
3.000000003843108 0 0
2.99999998767235 0 0
2.999999943592137 0 0
2.999999879221023 0 0
2.999999797801038 0 0
2.999999705912837 0 0
2.999999626677011 0 0
2.999999493410543 0 0
2.999999164983292 0 0
2.999999125745912 0 0
2.999999508661918 0 0
2.999999857036824 0 0
3.000000026785338 0 0
3.000000067767726 0 0
3.000000062414017 0 0
3.000000036585944 0 0
3.000000014194895 0 0
3.000000002038763 0 0
2.999999998004849 0 0
2.999999999795099 0 0
3.000000000430417 0 0
2.999999999725006 0 0
3.000000000149152 0 0
2.999999999931992 0 0
3.00000000007095 0 0
3.00000000014138 0 0
3.00000000023845 0 0
3.000000000187983 0 0
2.999999999793372 0 0
3.000000000134556 0 0
2.999999998926841 0 0
3.000000000225242 0 0
2.999999999682892 0 0
3.000000000938577 0 0
3.00000000154932 0 0
3.000000000397769 0 0
2.999999997425935 0 0
2.999999996524465 0 0
3.000000001562666 0 0
3.000000009762949 0 0
3.000000022034776 0 0
3.000000017023844 0 0
3.000000008186075 0 0
3.00000003931102 0 0
3.000000058994186 0 0
3.00000003836255 0 0
2.999999998769132 2.083350837186644e-09 0
1.289015057852858 0.5954318501889804 0
2.99999973638684 8.303913960262189e-07 0
2.999999975822289 2.680720137228177e-09 0
2.999999999897219 -3.598120547151606e-11 0
2.999999999956199 2.824705381930123e-13 0
2.999999999999149 2.201681710799776e-12 0
3.000000000098026 9.302532128328423e-11 0
3.000000003868356 1.72294958791511e-09 0
2.999999905863712 -2.293610586283169e-08 0
2.999999546676668 3.263010176255548e-06 0
3.000000000359917 5.086535286929664e-10 0
2.85198102073139 0.0522718926725823 0
2.999999998708782 2.469403428000517e-11 0
3.000000000110204 -3.596360726834391e-11 0
2.999999999861612 -1.027840079020508e-11 0
2.999999979938434 3.644758193727199e-09 0
2.999997658361378 -2.642146246030627e-06 0
2.999497115155541 -9.717118002894011e-05 0
2.990306970876654 0.002768039871894466 0
1.126294597160229 0.825484022831153 0
1.661357958418677 0.8183267244454578 0
3.071792029376271 -0.0003587143425818904 0
1.645471398518192 0.7954790297830939 0
2.032758727941919 0.7315387701738028 0
2.206567908892023 0.5402774318915965 0
2.45656813227642 0.4576760637908444 0
2.999999768741187 2.715312839551091e-07 0
2.658284070141721 0.2539652469155464 0
2.779536703740241 0.1958942907893998 0
2.654771050503836 0.3476873738386301 0
2.869851112225486 0.1349307100820702 0
2.795770066220234 0.2397411283867737 0
2.927993411293948 0.08517216989867718 0
2.886869462015475 0.151434705707069 0
2.966018536424853 0.03657062118711871 0
3.000000000114524 -1.134587778047551e-10 0
2.999997485898463 8.14861733014183e-06 0
2.962764339828173 0.0495026530416762 0
2.941231752955672 0.08829791733344231 0
3.000009852507319 -1.383743338676984e-06 0
2.999999995683979 3.993399234289678e-09 0
2.981953582544912 0.02663448087311057 0
2.971231480038317 0.04794844352927936 0
3.000000000056178 1.209711221424214e-10 0
2.991254901628718 0.0006360891009090177 0
2.922631728296237 0.1380547235887438 0
2.962153426243326 0.07549092146284023 0
2.991495182960151 0.0138363669077003 0
2.995531090101893 0.006589264250622821 0
3.083121182231478 -0.0002772728026857227 0
2.923487292168167 0.1650178673678376 0
2.961666106601538 0.09490641232503494 0
2.523690955676934 0.2873711053893715 0
2.850535234468848 0.09997458843689933 0
2.936319770710214 0.1689630101130729 0
2.968539656561986 0.09945795951173211 0
2.997914821035986 0.003368079736868784 0
2.999078165296456 0.00137133431617794 0
2.982284052918799 0.0495829354255942 0
2.985599793149093 0.05425018876277952 0
2.978324102620622 0.09532539100122159 0
2.990833306619922 0.05190314646520997 0
2.98854824199366 0.08497826287037565 0
2.99613500938429 0.04562596684014223 0
2.99738417508221 0.07063214770313506 0
3.00045584796385 0.03713445544759256 0
3.003730108809174 0.05515235486683814 0
3.003218002672332 0.02829649088975449 0
3.006972988210002 0.03886330482079376 0
3.00433762183103 0.01966278958096692 0
3.007649401614789 0.02601387200053937 0
3.004212322789107 0.01270804847404684 0
3.006661769254605 0.01593845858717624 0
3.00340514048498 0.007622518198421692 0
3.004928957768451 0.008903058737650706 0
3.002383504385357 0.004184587612121605 0
3.003259905711212 0.004610317413112685 0
3.001473166699379 0.002091641591835897 0
3.001861761932994 0.00210460342581043 0
3.000798170685579 0.0009368278355190811 0
3.000926814463691 0.0008435722040214707 0
3.000376229433975 0.000372515215699457 0
3.000403877288759 0.0002958302636645837 0
3.000148151580325 0.0001255855772420611 0
3.000148769236973 8.791109458436633e-05 0
3.00004708565091 3.548069012835149e-05 0
3.000043768009319 2.137859082383119e-05 0
3.000010758759952 8.020023125728591e-06 0
3.000009081238758 4.120404171872211e-06 0
3.000000999996627 1.342246372868994e-06 0
3.000000680774519 6.792756200056285e-07 0
2.999999548592581 1.473901215320843e-07 0
2.999999625812663 1.495146567187068e-07 0
2.999999746616779 -3.377406704366684e-09 0
2.999999813241949 3.774556464818298e-08 0
2.999999954376779 -1.306164700299746e-08 0
2.999999966991809 -1.931782898257711e-09 0
3.000000005966464 -6.302048091046506e-09 0
3.000000005313999 -6.193456671814876e-09 0
3.000000002748122 9.57583832470388e-11 0
3.000000001134208 5.255403716280286e-11 0
2.999999999113792 4.845768030507662e-10 0
2.999999999632451 4.431559308058747e-10 0
3.000000000158904 -1.928643989560379e-10 0
3.000000000024701 -1.640708260383279e-10 0
2.999999999981715 4.196910418149108e-11 0
3.000000000008568 3.379070577806092e-11 0
3.000000000007161 -3.732774602990508e-12 0
2.999999999993207 -2.549268721001966e-12 0
3.000000000006946 1.640431725107896e-13 0
2.999999999992104 -4.646612150314897e-12 0
2.999999999984466 1.40321687079587e-12 0
3.000000000045442 1.877001024775674e-12 0
2.999999999958046 -3.135590291733555e-12 0
2.999999999986575 3.383315514416924e-12 0
3.000000000099935 -4.392552581485354e-13 0
2.999999999856599 -1.834695138372204e-12 0
3.000000000075652 7.746576247720072e-12 0
3.000000000115768 -2.564113167664456e-12 0
2.999999999644388 -7.290633117978913e-12 0
3.000000000356529 4.481313825162788e-12 0
3.000000000192833 3.326903616724993e-12 0
2.999999998978979 2.823462716215975e-13 0
3.000000000659751 -2.825780943289686e-11 0
3.000000003152088 -2.967328129950349e-11 0
2.999999998300805 1.251216771698617e-10 0
2.999999980964382 2.709798865284295e-10 0
2.999999934775516 1.386808840121088e-09 0
2.999999862454094 3.472023840550047e-09 0
3.092350962475989 -0.0001135201410380777 0
2.999999873045304 1.707348252705248e-09 0
2.804139419613584 0.1064504852215996 0
2.954450017288038 0.02822960281530201 0
2.947414117490609 0.02615331402002903 0
2.990273032503884 0.00566536765206787 0
2.999999999019788 6.012322537287351e-12 0
2.999999999980042 1.79141915753868e-12 0
3.000886173892787 0.01760544220483029 0
3.00000000000266 -9.769047670050336e-12 0
3.000000004561415 3.91168992619028e-10 0
2.992067320249061 0.003603926177887746 0
2.999075970783072 0.0005171915839599503 0
2.998564981436641 0.0009867874998122448 0
2.999999507355096 1.794086931737628e-07 0
3.001407679607897 0.003154388252826482 0
3.000111267609604 0.0001296511926445177 0
2.993981661717696 0.0271595821398743 0
2.999564969278083 0.0007024006795684716 0
2.999842664557116 0.0002379958525342873 0
3.000000220661436 6.448743824835352e-09 0
3.01048925121719 0.04672777936746166 0
2.999999867622207 1.32300839170336e-09 0
3.000000199756585 -2.24261511838864e-08 0
3.001900819316237 0.001660872319159735 0
3.000035022297959 8.034962445884812e-06 0
2.999999879545091 6.310176381759394e-08 0
2.999999999991218 3.191559632682671e-10 0
2.999957656529583 3.587767198478837e-05 0
2.999833956692617 0.0001358040599151823 0
2.999999999986271 5.78386510433309e-12 0
2.999999999655823 3.719450044078608e-12 0
2.999999931646137 7.210385396767886e-10 0
2.879354385773658 0.2656404542527315 0
2.987676257343845 0.1219777475873217 0
2.999999860417959 -2.86958186902271e-09 0
3.000001728200457 -9.876930508379439e-08 0
2.999926574468672 0.0001197677277184942 0
2.99983838674256 0.0002881727367644015 0
2.999978994914534 3.333496067230269e-05 0
2.999956248399053 6.553590999801341e-05 0
2.999995775849061 7.037291012725914e-06 0
2.999991354404746 1.379772814709508e-05 0
2.99999970609182 7.847154794392064e-07 0
2.999999219562424 1.792921445686335e-06 0
3.000000161249234 -1.13832829984253e-07 0
3.00000021074818 -5.918416712310768e-08 0
3.000000072907395 -8.752154215790109e-08 0
3.000000124566241 -1.329961360426848e-07 0
0.1541136479701117 0.4421066704993515 0
2.779795971656267 0.09404807766549167 0
3.000000008425356 -1.554546182529853e-08 0
2.999796994847784 8.962649295863024e-05 0
3.000793235402269 0.0001091957470581722 0
3.000007132323361 -2.8935780436403e-06 0
2.535587597091954 0.157899514804379 0
3.000000019381858 -2.846570192793921e-08 0
3.000000132714192 -1.487316887882618e-08 0
2.999999873067322 2.042886484387775e-09 0
3.000007169090867 -2.335978781921134e-07 0
3.000025854841026 -1.069406341884119e-06 0
2.10827341264464 0.2592026288303902 0
2.999991344215566 1.462318668452204e-05 0
3.000066003461785 -3.774095772219553e-06 0
2.999999998461244 -6.766383581812184e-10 0
2.999999987112745 3.865062599897202e-09 0
2.996824586142423 0.0008882167133100941 0
3.000052570635866 1.131199143405003e-05 0
3.000000000067681 8.058981799288467e-11 0
3.000000012358795 2.636294850993411e-08 0
2.999999999999305 -2.250365465111636e-12 0
3.000000000160493 -2.045677519027671e-10 0
2.999999940145701 -2.964158345358157e-08 0
3.000009691840867 1.085349143120323e-05 0
2.999999999931329 -2.058105878133956e-12 0
3.000000001029813 -1.840923170635295e-10 0
2.999999999951731 1.821130636431855e-11 0
2.999931318837691 -3.036057935127842e-05 0
3.000000489661924 1.670435653355467e-08 0
2.942659007550135 0.02036639057291305 0
2.997510457656277 0.0001922953868054633 0
3.000524091406004 0.0008002905266060437 0
3.00000000000708 -2.066757049517466e-13 0
2.999999993885405 -4.836344620604013e-08 0
2.999999998961784 -3.983570285955462e-11 0
2.999998692687089 9.573068152796506e-06 0
2.999999742248516 6.655700698992445e-07 0
3.000000000100621 2.01422371324128e-11 0
2.999999999344812 -1.084692976530161e-10 0
2.999999999984487 -1.566949195322846e-11 0
2.999999999961947 -8.746463365004123e-11 0
3.002167227040747 0.008827647565620584 0
3.000000000019329 1.880814247859292e-11 0
3.000000002901678 -6.40398005421364e-09 0
3.000000480159742 2.770496541580087e-07 0
3.000372052121342 0.0001802815468251389 0
3.000000000147627 1.334295937410109e-12 0
3.000000000097369 -1.279112693954648e-12 0
3.008243416620241 0.01648779407966243 0
2.999999981086277 -4.495498745868241e-09 0
2.99999810292269 3.798518453337489e-06 0
3.000773542209193 -6.170316646701697e-05 0
2.317125456561745 0.02769192098788595 0
3.00000000081698 4.707143129748998e-12 0
3.000013425309958 -5.158166708657019e-06 0
3.000000034110862 -4.839612660273248e-08 0
2.573238945057526 0.4865840626070943 0
3.000002495841507 -1.278477120858004e-06 0
2.999999995926841 3.422234454520266e-09 0
3.000000208247946 -1.910627929944852e-07 0
3.000000031510906 -3.935465636080113e-08 0
3.000075252818642 -1.864950631057608e-06 0
2.999999862390651 -1.297590574755336e-09 0
2.999999941153873 1.715936317211881e-09 0
2.999999889250919 3.363597007821149e-07 0
3.000000022639576 -4.393609627173947e-08 0
2.999915009351737 0.0001209525172626726 0
3.000219993216824 -8.414325757067864e-06 0
2.999999997607807 2.792540975317822e-09 0
2.99878217589275 0.001013469970194645 0
2.999383881290838 0.0002737585069897258 0
3.000101413566135 -7.602040412481213e-06 0
3.000033376569344 -8.311561385001056e-06 0
3.000024246210235 -4.379651952400131e-07 0
3.000208219347768 -1.740029241321063e-06 0
3.083007541482548 0.001422795300096635 0
3.067087589145552 -0.001263345856193427 0
2.999851409211654 0.0001452832963629655 0
3.000000000697662 -7.052672400137665e-10 0
2.90910123962914 0.2485794954060563 0
2.834621909655096 0.3525221984427001 0
2.882764470180486 0.3045562892454367 0
3.000084721891776 -3.143368719053547e-06 0
2.996470408666269 0.006312925112715414 0
1.266386272579022 0.7677143581539316 0
2.999178038145272 0.000809932356056278 0
3.000001947616732 -9.100996461367659e-07 0
3.0000001459278 -1.002285628473294e-07 0
3.000000351609463 -1.920732041964455e-07 0
3.000019715879659 -5.364725688974494e-06 0
3.000000000403971 -9.363377183629342e-10 0
2.80162262519259 0.3758940457066706 0
2.859860372131748 0.3050336869197357 0
2.720827983848498 0.4521084716927927 0
3.000658088468045 -2.449109491203695e-05 0
3.000250721098123 -3.325941442068131e-06 0
2.999999999791962 1.563446295671989e-10 0
3.000000000542868 2.632774499618688e-10 0
2.999999878024404 9.4785826630144e-10 0
2.999999986911402 1.215702693382629e-09 0
3.000000000384229 6.191114315107743e-11 0
3.000000002680483 -1.546646111835701e-10 0
3.000000000045187 -7.330567235832039e-12 0
2.999999999190869 4.533790989550115e-11 0
3.000000000393613 -1.610077061060942e-11 0
3.000000000151298 -1.382164422552419e-12 0
2.999999999642591 -3.779072668841349e-12 0
3.000000000199701 2.053954521345992e-11 0
3.000000000023173 -2.229498834379826e-12 0
2.999999999875234 -1.99741646934586e-11 0
3.000000000121987 1.45938127966397e-11 0
2.999999999980946 -1.905741003848228e-11 0
2.999999999950339 7.386140286147148e-12 0
3.000000000028746 2.316860752706223e-11 0
2.999999999991884 -2.124564176666672e-11 0
2.999999999995834 1.130647843931277e-12 0
3.000000000009434 7.979746547857155e-12 0
2.999999999999664 -1.161863281555329e-11 0
2.999999999998321 6.003986983654606e-12 0
3.00000000000261 7.373669905056894e-12 0
3.000000000001587 -8.380200180112221e-12 0
3.000000000000199 -5.155732271841929e-12 0
2.999999999973817 2.363527691612669e-12 0
2.999999999958192 3.100487822077397e-12 0
3.000000000127498 4.193063851110894e-11 0
3.000000000150555 5.972224555252108e-11 0
2.999999999765921 -2.99287945494932e-10 0
2.999999999869645 -3.224222529786485e-10 0
2.999999999241466 8.709164205321462e-10 0
2.999999998932951 4.510537749017825e-10 0
3.000000005643108 2.698639402156271e-09 0
3.000000002884136 3.468888429173823e-09 0
3.000000010033993 -7.542719740537668e-09 0
3.000000012009937 -7.396768865865404e-10 0
2.999999977556307 -4.990452548965563e-08 0
3.000000001870056 -3.103068533250917e-08 0
2.999999855234917 -1.455284041387678e-07 0
2.999999938703942 -1.111815809516761e-07 0
2.999999584369265 -2.174279509973421e-07 0
2.99999977231937 -2.146333233883443e-07 0
2.999999370960549 2.484017779064828e-07 0
2.999999581242571 -3.633643503517411e-08 0
2.999999987948208 2.965323113659023e-06 0
2.9999996995177 1.34665545025157e-06 0
3.00000322344898 1.234871788061313e-05 0
3.000000810755775 6.300636039492214e-06 0
3.000011935130384 3.733732453860808e-05 0
3.000003815177434 1.905443133993947e-05 0
3.000028854433929 9.242981421559606e-05 0
3.000009274003453 4.581359459410633e-05 0
3.000054294042636 0.0001967785485125032 0
3.000016580074051 9.325173184750882e-05 0
3.000083330345635 0.0003680757890041055 0
3.000023980260841 0.0001675644111564796 0
3.00010568902262 0.0006197324171190642 0
3.000027747931126 0.0002763479240928294 0
3.000103808703048 0.0009618984062371479 0
3.000018411452768 0.0004200312280207377 0
3.000049869617371 0.001366520577587377 0
2.999985076855607 0.0005710185429753073 0
2.999924931046627 0.001743160162321785 0
2.999927665640172 0.0006809357610164039 0
2.999747394659226 0.001977809685424129 0
2.999868551303102 0.0006765994143409105 0
2.999586881678589 0.001895656611571108 0
2.999860233115009 0.0004785061523418693 0
2.99958244641095 0.001318488405719056 0
2.999898277113235 0.0002850630958070941 0
2.999697885016874 0.0007852511051155719 0
2.999936866602389 0.0001594353423880225 0
3.000074977612635 -1.670792379152574e-06 0
3.000581268247077 -7.326290683358843e-06 0
3.000000305810492 -2.302172083855146e-07 0
3.000000039245685 -4.339393653197665e-08 0
3.000000490890201 0.000106526808446496 0
2.990173131598726 0.002285312166244141 0
3.001497637945554 -3.969037489054471e-05 0
2.999813801703193 0.0004334432182562746 0
2.999966478475744 7.852172989518024e-05 0
2.999168388567669 0.001984354138268 0
3.000002108968538 -8.972125534100393e-07 0
3.001794779103088 -2.090530455522975e-05 0
3.000643687586328 -9.274507538337793e-08 0
3.004041789720086 9.781968885939735e-06 0
3.001567709164158 -5.217041728536996e-05 0
3.00023731501379 -6.339375880569387e-06 0
3.000648871460415 -3.671000315518773e-05 0
3.000089316429299 -4.183510718619766e-06 0
3.000268660282137 -1.098089306327713e-05 0
3.000031490213582 -7.90288729344365e-07 0
3.000095291635951 2.277812749666728e-06 0
3.000008968658783 5.53282171331243e-07 0
3.00084171374172 1.178805809706756e-05 0
3.000002063467586 5.394464729580493e-09 0
3.000000145863098 6.821164254418233e-08 0
2.999901113692283 0.0001130048575738907 0
2.999487506207233 0.0005738711706073049 0
2.999999965448767 1.133089252159339e-08 0
2.99997043915625 8.601106590796118e-05 0
2.999999378126164 5.727120156195273e-08 0
3.000000000139956 2.994045359527507e-10 0
0.3440412253084805 0.1017941499070033 0
2.999999843342381 4.780701913976623e-09 0
2.999999851787389 -8.414546106763367e-10 0
2.99999993091314 -1.619144872087848e-09 0
2.999999984935766 -2.406660141869326e-09 0
2.999999999452872 -3.427578680890614e-10 0
3.000000003082112 1.435214279245871e-10 0
3.000000000424731 7.811528289296184e-11 0