<?xml version="1.0"?>
<VTKFile type="UnstructuredGrid">
  <UnstructuredGrid>
  <Piece NumberOfPoints="1224"  NumberOfCells="2290">
    <Points>
      <DataArray type="Float64" NumberOfComponents="3" format="ascii">
0 0 0
0.6 0 0
0.6 0.2 0
3 0.2 0
3 1 0
0 1 0
0.05454545454535233 0 0
0.1090909090906768 0 0
0.1636363636359771 0 0
0.2181818181812728 0 0
0.2727272727265793 0 0
0.3272727272720317 0 0
0.3818181818176247 0 0
0.4363636363632168 0 0
0.4909090909088285 0 0
0.5454545454544089 0 0
0.6 0.03999999999991203 0
0.6 0.07999999999979179 0
0.6 0.1199999999997886 0
0.6 0.1599999999998948 0
0.6510638297871261 0.2 0
0.7021276595742618 0.2 0
0.7531914893613819 0.2 0
0.8042553191485237 0.2 0
0.8553191489356438 0.2 0
0.9063829787228289 0.2 0
0.957446808509926 0.2 0
1.008510638297009 0.2 0
1.059574468084092 0.2 0
1.110638297871174 0.2 0
1.161702127658257 0.2 0
1.21276595744534 0.2 0
1.263829787232422 0.2 0
1.314893617019505 0.2 0
1.365957446806588 0.2 0
1.417021276593671 0.2 0
1.468085106380754 0.2 0
1.519148936167923 0.2 0
1.570212765955006 0.2 0
1.621276595742088 0.2 0
1.672340425529171 0.2 0
1.723404255316254 0.2 0
1.774468085103337 0.2 0
1.825531914890624 0.2 0
1.876595744677951 0.2 0
1.927659574465349 0.2 0
1.978723404252714 0.2 0
2.029787234040074 0.2 0
2.080851063827477 0.2 0
2.131914893614798 0.2 0
2.182978723402204 0.2 0
2.234042553189523 0.2 0
2.285106382976928 0.2 0
2.336170212764247 0.2 0
2.387234042551653 0.2 0
2.438297872338975 0.2 0
2.489361702126377 0.2 0
2.540425531913739 0.2 0
2.591489361701102 0.2 0
2.642553191488421 0.2 0
2.693617021275827 0.2 0
2.744680851063146 0.2 0
2.795744680850551 0.2 0
2.84680851063787 0.2 0
2.897872340425276 0.2 0
2.948936170212618 0.2 0
3 0.2533333333332341 0
3 0.3066666666664725 0
3 0.3599999999996274 0
3 0.413333333332804 0
3 0.4666666666659806 0
3 0.5199999999991571 0
3 0.5733333333323336 0
3 0.6266666666656895 0
3 0.6799999999991551 0
3 0.7333333333326146 0
3 0.7866666666660802 0
3 0.8399999999995775 0
3 0.8933333333330373 0
3 0.9466666666664969 0
2.949152542373491 1 0
2.898305084746983 1 0
2.847457627120474 1 0
2.796610169493702 1 0
2.745762711866469 1 0
2.694915254239208 1 0
2.644067796611963 1 0
2.593220338985156 1 0
2.542372881358647 1 0
2.491525423732018 1 0
2.44067796610481 1 0
2.389830508477549 1 0
2.338983050850287 1 0
2.288135593223026 1 0
2.237288135595765 1 0
2.186440677968504 1 0
2.135593220341243 1 0
2.084745762713982 1 0
2.033898305086721 1 0
1.983050847459614 1 0
1.932203389832729 1 0
1.881355932205844 1 0
1.830508474578958 1 0
1.779661016952073 1 0
1.728813559325189 1 0
1.677966101698303 1 0
1.627118644071418 1 0
1.576271186444533 1 0
1.525423728817648 1 0
1.474576271190575 1 0
1.423728813563314 1 0
1.372881355936053 1 0
1.322033898308791 1 0
1.27118644068153 1 0
1.220338983054269 1 0
1.169491525427008 1 0
1.118644067799747 1 0
1.067796610172485 1 0
1.016949152545224 1 0
0.9661016949179628 1 0
0.9152542372907018 1 0
0.8644067796634407 1 0
0.8135593220361792 1 0
0.7627118644089181 1 0
0.7118644067816566 1 0
0.661016949154396 1 0
0.6101694915271345 1 0
0.5593220338998739 1 0
0.5084745762726124 1 0
0.4576271186453518 1 0
0.4067796610180903 1 0
0.3559322033908292 1 0
0.3050847457635677 1 0
0.2542372881363066 1 0
0.2033898305090456 1 0
0.1525423728817841 1 0
0.101694915254523 1 0
0.05084745762726151 1 0
0 0.9473684210524125 0
0 0.8947368421048248 0
0 0.8421052631576025 0
0 0.7894736842105994 0
0 0.7368421052635962 0
0 0.6842105263165927 0
0 0.6315789473695894 0
0 0.5789473684225861 0
0 0.5263157894755828 0
0 0.4736842105282874 0
0 0.4210526315806998 0
0 0.3684210526331123 0
0 0.3157894736855248 0
0 0.2631578947379374 0
0 0.21052631579035 0
0 0.1578947368427625 0
0 0.1052631578951749 0
0 0.05263157894758741 0
0.4374856279758046 0.955462795473483 0
0.625531914893563 0.2394317949808221 0
0.7891616249544176 0.9557759867023439 0
2.570562443351098 0.9559758769411787 0
2.364406779663917 0.9559648099769389 0
2.161016949154874 0.9559648099769389 0
1.957627118646171 0.9559648099772646 0
1.756856606547665 0.9560078743553572 0
1.553415402058453 0.9561420672712786 0
1.347457627122422 0.95627738856474 0
1.144067796613377 0.9563034567995272 0
0.04146670856173688 0.5498854761242812 0
0.9828861012149002 0.2442383967812095 0
2.465390809289578 0.2421522008426663 0
2.259572257543314 0.243586373321511 0
2.055319178697841 0.24363095694403 0
1.851066099915384 0.2436741865527954 0
1.646810778591931 0.2437170671454607 0
1.442550972205278 0.2437587738062726 0
1.238275543433999 0.2442249255777628 0
0.5808319854219957 0.2417757800606361 0
0.6039807146029165 0.2785115072887754 0
2.951522810440164 0.5995349944823752 0
0.5591131416216563 0.2791940688436214 0
0.5817690965011905 0.3180386921514113 0
0.5363223429032008 0.3181181454258206 0
0.5590799034518541 0.3577335228902347 0
2.671507320584846 0.2416532643303031 0
0.5129751095268966 0.3576683284772433 0
0.5360042291720796 0.3976917483469583 0
0.5824744072527975 0.3977458985417416 0
0.5593202208963615 0.4382323507424581 0
0.6062221806132498 0.4382172989803606 0
0.5831398502988122 0.4790536480492864 0
0.630245509211025 0.4792447281197085 0
0.5373735766893435 0.4817209888486334 0
0.2780994584865757 0.9660670791366374 0
0.9407829849899363 0.9559852449915113 0
0.6069171020766708 0.5203953730037822 0
0.6544691944766102 0.5205851219036783 0
2.724115018794794 0.9563165682871465 0
0.04341732373162228 0.2894490564426765 0
0.6304562046384772 0.5622881188475496 0
0.6786259291441818 0.5621981517123112 0
0.03938236249337418 0.7091098825652095 0
0.2999999999993055 0.04723774929726795 0
0.7024556039582556 0.5200372393771872 0
0.726826368578132 0.562505099575485 0
0.6545296629344706 0.6041261864689124 0
0.6061411599039735 0.6041581669226386 0
2.954333097254252 0.4393531299125908 0
0.7512905139641642 0.5199435586712576 0
0.7757938242112172 0.5624873891767795 0
0.4902278874550028 0.3174350849704655 0
0.4661669324669476 0.3576870257641042 0
0.8003371868304782 0.5195844107098163 0
0.8251782158071723 0.5621174250913318 0
0.6300572939290072 0.6460588488486728 0
0.581677101888915 0.6462390077748084 0
0.7994632498085218 0.6067218912904607 0
0.850068894442807 0.6047738158182728 0
0.8747482025846163 0.5617915498272615 0
0.8998102571129438 0.6045430073239006 0
0.924588798996443 0.5614360364847856 0
0.9497125983499418 0.6046345614192383 0
0.9744389394813738 0.5613114208485291 0
0.9997656958801404 0.604758732930365 0
1.024028015453996 0.5597386087889248 0
1.050046148741532 0.6042836632406788 0
1.075213347289947 0.5607219500906248 0
1.100604808237692 0.6043040651294929 0
1.125727120818654 0.5598592244124957 0
1.151165990249003 0.6040638744783449 0
1.176319565514503 0.5595216793632644 0
1.201793840633129 0.6038781229769293 0
1.226960854257978 0.5600604284234054 0
1.252470704079807 0.6038664424080111 0
1.277198987313166 0.55874807111347 0
1.303148970446812 0.6035341865995129 0
1.328130525802366 0.5586520846649797 0
1.353966012915828 0.6034054551655909 0
1.379205474149696 0.558835304845746 0
1.404820923589671 0.6032503772964327 0
1.430092956912838 0.5587079795953892 0
1.455686300628245 0.6030926920218221 0
1.480963489515269 0.5580480170404921 0
1.506562983627252 0.6028436706904448 0
1.531847734917255 0.5577680566445021 0
1.557453558526421 0.6026435181305781 0
1.582745756648754 0.5575726351194972 0
1.608358176126191 0.6024617369905624 0
1.633656322435163 0.5573842056888257 0
1.659277805706528 0.6022873884346892 0
1.684577462424181 0.5572075399874397 0
1.710203504633815 0.6021111834258887 0
1.735506494091908 0.5570246051384745 0
1.761134606493805 0.6019307913070558 0
1.786441498808711 0.5568475628142857 0
1.812072359676459 0.6017522495250318 0
1.837381834584306 0.5566653603575672 0
1.863017119880456 0.601574020443024 0
1.888326681794851 0.5564884669211013 0
1.913963858781491 0.601395113412113 0
1.939274704592935 0.5563067813822595 0
1.964908406083961 0.6012129143420911 0
1.990224566339525 0.5561292537946573 0
2.015859329864652 0.601032757987411 0
2.041177190815608 0.5559477304122714 0
2.066818109147928 0.600855564813206 0
2.09213259478423 0.5557710179709322 0
2.117774443326183 0.6006760179252703 0
2.143088896138059 0.5555900146741853 0
2.168729305797513 0.6004921726308964 0
2.194045774061603 0.5554125217101814 0
2.219686577151481 0.6003111949874665 0
2.245003702950199 0.5552312296013228 0
2.270641766736839 0.6001298880828497 0
2.295962173634055 0.5550546947866846 0
2.321601310982481 0.599950595338254 0
2.346923922781879 0.5548708301001631 0
2.372568004594504 0.5997713467128002 0
2.397895756972162 0.5547000681173012 0
2.423546697517365 0.5996004731097838 0
2.448884659670238 0.5545095609010697 0
2.474538141419978 0.5994220729206983 0
2.499902931415869 0.5543494429014709 0
2.525546234724433 0.5993228147833797 0
2.550973655834774 0.5541346321759457 0
2.576685338327378 0.5992395038842441 0
2.602182482443039 0.5540180644105763 0
2.958944511946492 0.7598964409357507 0
2.628014314012249 0.5990918128353608 0
0.4429170888396284 0.3159793431387367 0
0.4184631156771032 0.357715436029677 0
0.3946070818022522 0.3157219358498637 0
0.3697276561976696 0.3576135465858128 0
2.449044355814981 0.643990885448769 0
2.24531935830005 0.6444881680698032 0
1.024857369602972 0.6487487015028032 0
2.041498164113345 0.6452136474256573 0
1.837701628146142 0.6459229900926835 0
0.3455853078837237 0.3150377509381005 0
0.3204780172155196 0.3574251905568473 0
0.3449438693484468 0.4002519798591844 0
1.633970683060678 0.6466170330762969 0
1.227333380683899 0.6479317947648683 0
1.430444030483603 0.6473399689389928 0
0.875196942148915 0.6483605753517908 0
0.6057010339261732 0.6883083412871458 0
0.5571396249147901 0.6885103796531055 0
2.653543252321963 0.5527758280498023 0
1.099471497978971 0.5148848291986879 0
2.602427017093663 0.6438096025956825 0
2.653851606946175 0.6437140715169269 0
1.353138019780104 0.5138574114565649 0
1.556762689169365 0.5115839513085039 0
1.760509743411542 0.5109012431757174 0
1.964341412665395 0.510388685431229 0
0.2953909602266698 0.4001745965167012 0
[...]
    <PointData>
      <DataArray type="Float64" NumberOfComponents="3" Name="Velocity" format="ascii">
3.000000112590914 0 0
0 0 0
0 0 0
3.209258069284203 0 0
3.210667387398692 0 0
3.000000000000331 0 0
2.999999884075228 0 0
3.00000040326523 0 0
2.999999560920473 0 0
2.999992630047049 0 0
3.000077336057332 0 0
2.999626982322101 0 0
2.999360875491898 0 0
3.023658954797462 0 0
2.921852948914483 0 0
1.777764484393648 0 0
0 0.01125890003589614 0
0 0.001240976084710014 0
0 0.06139229088899174 0
0 0.1963816146882886 0
1.848874207978737 0 0
2.593474157078513 0 0
2.886989742574606 0 0
2.981269042687656 0 0
2.999683725942472 0 0
3.00105189644576 0 0
3.000047724364297 0 0
2.999929918628162 0 0
3.00000484972469 0 0
3.000004050430997 0 0
2.999998590860526 0 0
3.000000156634027 0 0
3.000000066922366 0 0
2.99999996185101 0 0
3.000000013667039 0 0
2.999999995772805 0 0
3.000000001133841 0 0
2.999999999736026 0 0
3.000000000054436 0 0
2.99999999999021 0 0
3.000000000001431 0 0
2.999999999999873 0 0
2.999999999999983 0 0
3.000000000000012 0 0
3.000000000000009 0 0
2.999999999999945 0 0
3.000000000000124 0 0
2.99999999999979 0 0
3.000000000000543 0 0
2.99999999999845 0 0
2.999999999999505 0 0
3.000000000025253 0 0
2.999999999918762 0 0
2.999999999944669 0 0
3.000000001060738 0 0
2.999999996169414 0 0
3.000000014161012 0 0
2.999999953468968 0 0
3.000000047783281 0 0
3.000000640664528 0 0
2.999995254235499 0 0
3.0000133521128 0 0
3.000043318259324 0 0
2.999530525381249 0 0
3.000383127061437 0 0
3.033706165255118 0 0
3.210750161372646 0.0007505420132209818 0
3.200401357814473 -2.616117462526855e-05 0
3.201491926665249 0.0001938748502238258 0
3.201238332189621 -0.0001212933728292651 0
3.203476763236618 -0.0002322229576353399 0
3.205781200494322 -0.0001280658194305538 0
3.203749687227806 0.000134472627299645 0
3.203027134294786 -0.0003619587144052367 0
3.206668035621324 -1.536516867727337e-05 0
3.204469697274906 0.0001513875348265498 0
3.205812533429025 0.0001455632586498523 0
3.202455379601538 6.867455075295457e-05 0
3.200973788315278 -0.0008919341404917921 0
3.212672384918941 -0.0006378032380485645 0
3.029666878999185 0 0
3.000619091532875 0 0
2.999581673196016 0 0
3.000029371604054 0 0
3.000008678960539 0 0
2.999996893659032 0 0
3.000000345858591 0 0
3.000000067810053 0 0
2.999999961047976 0 0
3.000000010749635 0 0
2.999999997012974 0 0
3.000000000623632 0 0
3.000000000069207 0 0
2.99999999992494 0 0
3.000000000010847 0 0
3.00000000000491 0 0
2.999999999997388 0 0
3.00000000000039 0 0
3.000000000000113 0 0
2.999999999999898 0 0
3.000000000000046 0 0
2.999999999999984 0 0
3.000000000000004 0 0
3 0 0
3 0 0
3 0 0
3.000000000000001 0 0
3.000000000000004 0 0
2.999999999999997 0 0
2.99999999999998 0 0
3.00000000000005 0 0
3.000000000000038 0 0
2.999999999999717 0 0
3.000000000000063 0 0
3.000000000000988 0 0
2.999999999999283 0 0
2.999999999997599 0 0
3.000000000003095 0 0
3.000000000006347 0 0
2.999999999993287 0 0
2.999999999980393 0 0
2.999999999994972 0 0
3.000000000020498 0 0
3.000000000030132 0 0
3.000000000030038 0 0
3.000000000024185 0 0
3.000000000010413 0 0
3.000000000003523 0 0
3.000000000002692 0 0
3.000000000003648 0 0
3.000000000000126 0 0
2.999999999996711 0 0
3.00000000000149 0 0
2.999999999999382 0 0
2.999999999999916 0 0
3.000000000000266 0 0
2.999999999999892 0 0
2.999999999999931 0 0
3.000000000000163 0 0
2.999999999999512 0 0
2.999999999998656 0 0
3.000000000015294 0 0
2.999999999995218 0 0
3.000000000095346 0 0
2.999999999947909 0 0
2.999999999465421 0 0
3.000000000227884 0 0
3.000000000269665 0 0
2.999999999329352 0 0
2.999999995506915 0 0
2.999999987085815 0 0
2.999999995830036 0 0
3.000000024036686 0 0
3.000000047950369 0 0
3.000000055652908 0 0
3.000000059654074 0 0
2.999999999993861 1.695508054549877e-11 0
1.922655235781149 0.3096037169601511 0
2.999999999947706 -3.773249751942345e-11 0
2.999999942289425 -5.643874345496772e-09 0
2.999999999560682 -1.53639469343247e-11 0
3.000000000001877 4.904654961993301e-13 0
2.999999999999977 -2.051478012787502e-14 0
3 -2.302602183541927e-15 0
2.99999999999999 7.641716461541501e-17 0
3.000000000000078 -7.033097562416883e-14 0
3.000000000003523 -2.857024166275705e-13 0
3.000000000238114 -6.418410702739205e-11 0
2.999899667508116 8.910231457400488e-06 0
3.000000000350933 3.410608153346103e-10 0
2.999999999996338 -9.86599677417993e-13 0
3.000000000000191 3.827364305008707e-14 0
3.000000000000008 1.294607581251553e-14 0
3.000000000005522 -8.42677911249223e-14 0
2.999999999975259 -1.063465584149321e-11 0
3.000000261584048 -1.418230648242427e-08 0
2.125224291240635 0.3072752873889815 0
2.610948872306543 0.2346161055854734 0
3.043357960286192 -8.822225040845394e-05 0
2.78879429849168 0.1173231681491656 0
2.920926367238129 0.06862470437654762 0
2.976598905124715 0.01789002412015751 0
2.993577209718533 0.007849455042486988 0
2.999998561169997 -6.532345658524575e-08 0
3.000281910688458 0.0003955909608562013 0
3.000462737883922 -0.0001376557863470246 0
2.999800163138308 0.001174695019837725 0
3.000269185031221 -0.0003164474959734204 0
3.000393316139123 -0.0005015206452586996 0
3.000028148546197 -8.835641970220086e-05 0
3.000080223680147 -0.0002299366616454257 0
2.999984645375291 -5.756047333136106e-06 0
2.9999999999997 2.048219898364604e-13 0
3.000000000028019 4.267472590880264e-12 0
2.99998732801421 2.071364446959682e-05 0
2.99999408301328 8.6343238684976e-06 0
2.999999005772498 -5.347612512046391e-07 0
3.000000010661001 -2.764818221130695e-09 0
2.999997587762949 1.191260662304916e-05 0
2.999999634655274 1.489739558073805e-05 0
2.999999999975386 3.866256740457688e-12 0
3.000016361184165 1.462035160053078e-06 0
2.999996289699714 4.994103583394143e-06 0
3.00000210052637 1.198322402648286e-05 0
2.999999949007165 -9.085826636308524e-07 0
3.000000486715211 -1.775181860591077e-06 0
3.052832196450711 -0.0001695353597515322 0
2.999997421941385 1.481642719078994e-05 0
3.000002976264583 4.964536747679989e-06 0
3.000739617229438 0.0002718160893221562 0
3.000540044339858 -0.0003385203221815346 0
3.000002995553027 1.929002173297767e-05 0
3.000001607729875 -3.579908472016547e-07 0
3.000000091581547 -6.669094670074419e-07 0
3.000000002500005 -1.728974679557767e-07 0
2.999999209871562 -1.593812261500161e-06 0
2.999999286329606 -6.592214896815588e-07 0
2.999999563598 -1.988715064036269e-06 0
2.999999735401214 9.296195592081431e-08 0
2.999998862780979 -9.489064108060483e-07 0
3.000000140992019 2.760841822833498e-07 0
2.999999595668735 3.074938409868539e-07 0
3.000000173467644 3.098080681873292e-08 0
3.000000188109823 2.931489505465557e-07 0
3.00000000091489 -7.752960218672872e-08 0
3.000000141232922 -8.853020648432676e-08 0
2.999999958063052 -7.099657020774155e-09 0
2.99999999870671 -5.918917411697901e-08 0
2.999999991306634 2.141219306732747e-08 0
2.999999964043289 2.333974590479363e-08 0
3.000000009735044 -3.441346756450022e-09 0
3.000000001470668 4.486921488363153e-09 0
3.000000000815293 -2.588217066196363e-09 0
3.00000000735514 -4.86417721352822e-09 0
2.999999997896586 1.461663908839011e-09 0
2.999999996817325 1.45334257203838e-09 0
3.000000000782125 -3.433474481109994e-10 0
3.000000000570821 -1.975338282469323e-10 0
2.999999999912586 1.397670014433999e-11 0
3.000000000003098 -4.318995934238689e-12 0
2.999999999953131 2.160013565628652e-11 0
2.999999999960785 1.029175905166914e-11 0
3.000000000032929 -1.092749221139625e-11 0
3.00000000001672 -3.612895921094743e-12 0
2.999999999987385 3.62202972949756e-12 0
2.999999999994793 9.64842955013982e-13 0
3.000000000003806 -1.01050570320494e-12 0
3.000000000001513 -2.366901126497977e-13 0
2.999999999998954 2.633162776141482e-13 0
2.999999999999575 5.225183213066167e-14 0
3.000000000000285 -6.576336587571865e-14 0
3.00000000000011 -9.383038568386879e-15 0
2.999999999999927 1.674208178722996e-14 0
2.999999999999975 5.649850614035407e-16 0
3.000000000000018 -3.416427291535457e-15 0
3.000000000000004 4.882159266621621e-16 0
2.999999999999988 -1.323088637040221e-15 0
3.000000000000006 -3.644312499851681e-15 0
3.00000000000002 1.19176542596894e-14 0
2.999999999999971 1.333529964748188e-14 0
2.99999999999997 -3.975904276866791e-14 0
3.000000000000067 -3.095310462389391e-14 0
3.000000000000016 7.942481667937845e-14 0
2.999999999999875 4.835578552043083e-14 0
3.000000000000113 -8.8781148998582e-14 0
3.000000000000379 -5.753157254966394e-14 0
2.999999999998801 -1.851039233246398e-14 0
2.999999999999573 9.617192446017078e-14 0
3.000000000005719 2.664042702812687e-13 0
2.999999999994724 -3.487707837100417e-13 0
2.999999999988928 -3.468893732143558e-13 0
3.000000000031042 1.144466758743395e-12 0
2.999999999976684 -4.116783171723826e-13 0
2.999999999951239 -2.527814406656115e-12 0
3.000000000185868 1.945919514680971e-12 0
2.999999999803419 3.978631356078868e-12 0
2.999999999714976 -1.465640860553053e-12 0
3.000000001135528 -9.875272872646841e-12 0
2.999999999165521 -3.383365775078032e-12 0
2.999999997150973 6.134900062756871e-11 0
3.000000005353142 1.045303144782462e-11 0
3.000000009509452 -4.169672652202713e-10 0
2.999999981601807 -9.634633845115556e-11 0
2.999999955308984 2.337044228564121e-09 0
3.000000026836967 1.011698688784218e-09 0
3.000000209445157 -4.592927928982894e-09 0
3.062101219966821 0.0001264970546184906 0
3.000000181890024 -5.221285863687553e-09 0
3.000943075531697 -0.0003969086232066731 0
2.999938698010518 -1.395512229992976e-06 0
2.999899986049148 9.390816994121698e-06 0
2.999973090342558 1.332638739781639e-05 0
2.9999999971545 -6.221802127078553e-11 0
3.000000000032609 2.251776417185158e-13 0
2.999999947440109 -2.172165201980372e-08 0
2.999999999999604 -1.799681153925659e-13 0
3 5.197333905325511e-15 0
2.999982360016896 6.227900485809779e-06 0
3.000006893894049 -1.201331635139362e-06 0
3.000004701061603 -8.401490829313462e-07 0
2.999999999998541 4.608115502310564e-13 0
2.999999997439621 6.5222438529286e-10 0
3.000000000022371 4.554258861679611e-13 0
3.000000136885002 1.982655708178581e-07 0
2.999999986287737 1.971461691752814e-07 0
2.999999976159128 1.11274661776848e-07 0
2.999999421702152 -2.634570932606679e-08 0
3.000000185760257 2.111327425209223e-08 0
3.000000205846099 2.183323362317219e-09 0
2.999999400504935 2.785364424183737e-08 0
2.999999996782873 1.211467669475073e-09 0
2.999999999990763 3.021594513988346e-12 0
2.999999999999944 1.734128984492172e-14 0
3.000000000000027 3.758152025654741e-14 0
3.000000344023848 -4.418935441980046e-07 0
3.000000475438746 -4.900181320833873e-07 0
3.000000000004098 7.225955790350307e-14 0
2.99999999983743 -1.492094068738305e-11 0
3.000000004292221 1.780148460438412e-09 0
2.999963356142881 -9.097121719792228e-05 0
2.999999815970075 -2.693621977496084e-06 0
3.000000291961899 1.900485076472402e-08 0
2.999997889762053 -9.550626037888908e-09 0
2.999999998065605 -2.254485404023501e-08 0
2.999999992080984 6.000059126110307e-09 0
3.000000007701403 -2.293742880437848e-08 0
3.000000005333729 6.431833423048877e-09 0
3.000000003697844 -8.792735628805195e-09 0
3.000000020823827 -2.201895319058539e-08 0
2.999999996522193 2.361912375938034e-09 0
3.000000005320792 -1.037441754160145e-08 0
2.999999998069381 2.942796184227624e-09 0
2.999999993882843 3.352017658246002e-09 0
3.000000001467908 -8.563169139574563e-10 0
2.999999999512944 1.943852022850267e-09 0
1.128264786892208 0.0814050430812482 0
3.000924382699686 -0.0002711930231165439 0
2.999999999722489 -2.099139469307857e-10 0
3.000004890616697 -8.773215547795056e-07 0
2.999844732466274 -1.882682922577405e-05 0
2.999999733527084 9.119164974348857e-08 0
2.99832654802161 0.002555485725683161 0
3.000000001449816 -1.220361647796864e-09 0
2.999999522620122 4.515664139508075e-10 0
3.000000235790892 -1.833420781978094e-09 0
2.999997888406781 1.122082586059523e-08 0
3.000006330151425 -4.250129241097955e-07 0
2.816266374771836 0.06458290497507962 0
3.000000001340779 -7.446498002822651e-10 0
2.999993382656287 2.640476429455042e-07 0
3.000000001100271 -4.934707267069427e-11 0
2.999999992126804 -5.941529398353115e-10 0
3.000016241292064 -4.352883055774088e-06 0
3.000000259805703 -2.151484848922999e-07 0
2.999999999997542 1.544000735108854e-12 0
2.999999999942947 -2.048854448566351e-11 0
2.999999999998185 -5.578208587724678e-13 0
2.99999999999998 3.860679452986481e-15 0
2.999999999999909 2.95061367378453e-14 0
2.999999999987273 4.850602865242097e-12 0
3.000000000003927 -4.731956995063401e-13 0
3.000000000000028 4.054246846405732e-14 0
2.999999999511572 3.168606118743499e-11 0
3.00000000005238 -1.416040057638058e-12 0
3.000000000000329 -1.861049044421706e-16 0
3.000008622291972 -8.974101772402342e-07 0
3.000000007548719 -5.334889532453517e-10 0
3.000000000474503 -3.885284795132903e-10 0
2.99999999999941 1.396516866218412e-13 0
3.000000000000016 1.062486622098481e-14 0
2.999999999796608 -1.1352617343506e-10 0
2.999999999988695 -9.20133242130936e-13 0
2.999999999999131 2.313454258080619e-13 0
3.000000000022118 1.46689075317884e-14 0
3.000000000000003 -8.489037913302094e-16 0
3.000000000000008 -1.48182209594652e-14 0
2.999999999999562 9.195382187779231e-14 0
3.000000013069614 4.381220544786423e-09 0
3.000000000000246 6.743698821007721e-14 0
2.999999999999991 7.136579881675527e-15 0
2.999999999999391 2.169407822554481e-13 0
2.99999999985755 4.549752118817956e-11 0
2.999999999816876 -3.588720122036825e-12 0
2.999999999970463 2.728331643911868e-14 0
2.999999968544443 9.75787464591239e-09 0
2.999999911225002 7.79531156035674e-09 0
3.000000030633848 -2.418685831151536e-08 0
2.99987599122469 5.158982788074026e-06 0
3.005409650631532 -3.234545616723128e-05 0
3.000000006034174 -1.555719019210491e-10 0
2.999999721823355 7.286754305704806e-08 0
3.000000000140468 -5.231589978727146e-10 0
2.998428188233369 0.004060312641200946 0
3.000000003168325 2.223863041326787e-08 0
2.999999999867973 2.563057125676311e-10 0
2.99999999340106 4.615078052628962e-09 0
3.000000002250359 -3.551350031213233e-10 0
3.000021048948762 -6.588628626509714e-08 0
3.000000260806429 -1.840081794158952e-08 0
3.000000010242057 1.094480937643106e-09 0
2.999999998792782 2.359585645546832e-09 0
2.999999999990375 -4.380708167020458e-11 0
2.999999898881026 1.59363439513559e-07 0
3.00002053845453 6.764773111767846e-07 0
3.000000000158035 -6.392182364951414e-11 0
3.000003257388215 -1.018913940800855e-06 0
3.000029950039449 -5.948110164083602e-06 0
2.999997803129717 1.07758245688527e-07 0
2.999998704018097 3.963963003355994e-07 0
3.000006027975869 2.693705506363312e-07 0
3.000019785901883 -5.400030503422189e-07 0
3.053932638242268 0.0004542601490966819 0
3.040338206388835 -0.0005381157416528758 0
3.000000155906288 -3.380002502782819e-07 0
2.999999999957673 -1.471743462938944e-11 0
2.999971004960405 -3.55883318067176e-06 0
3.000016681418439 -0.0002869647323039432 0
2.999934837885644 -0.000106348945265139 0
3.000024149800591 -8.380432950117039e-08 0
2.999999996003362 -7.985580991607509e-07 0
2.682327519253135 0.1053166223583259 0
3.000002652839331 -1.395275161898515e-06 0
3.000000015300465 1.403277430277941e-08 0
3.000000025727168 -1.225312448997753e-08 0
3.000000020725618 -1.365866524484878e-08 0
2.999999193367626 2.317142485247755e-07 0
2.999999999972035 2.929595017718595e-11 0
3.000373065513659 -0.0004815738438911126 0
2.999949858961456 -0.000232150856287175 0
3.000593512796326 0.001051349158793391 0
2.999904277315734 6.891793707435011e-06 0
3.000007880863635 -4.884695263924768e-07 0
3.000000000017228 -8.041688547457598e-12 0
3.000000000131482 -1.164677624879921e-10 0
3.000000183037073 -6.833390663077763e-09 0
2.999999959884554 2.491039002889829e-09 0
2.999999982067822 5.013639828337097e-10 0
3.000000008143424 -5.30054716450062e-10 0
3.000000005930363 -2.199656353734031e-10 0
2.999999997477292 1.039588732098076e-10 0
2.999999998859317 4.783484386516837e-11 0
3.000000000924733 -2.606438488548124e-11 0
2.999999999831856 -1.371827052252818e-11 0
2.999999999899686 1.68141625433674e-11 0
3.000000000141509 2.412742894982215e-12 0
2.999999999942319 -7.460741572585528e-12 0
2.999999999990413 8.1224753172803e-13 0
3.000000000021138 1.288302142524751e-12 0
2.99999999998486 -1.720554197923982e-13 0
3.000000000001659 7.531298873476792e-14 0
3.000000000007058 -3.804275094500265e-13 0
2.99999999999636 5.281269187416804e-14 0
2.999999999998649 3.795639039997937e-13 0
3.000000000001542 -1.628359200236788e-13 0
2.999999999999862 -2.168309351058684e-13 0
2.999999999999626 1.41788763157048e-13 0
3.000000000000225 8.050581483290562e-14 0
3.000000000000034 -8.889408404694842e-14 0
2.999999999999893 -7.467703070392812e-15 0
3.000000000000019 4.443109702457016e-14 0
3.000000000000035 -1.506848245877235e-14 0
2.99999999999999 -1.728808634544189e-14 0
2.999999999999994 1.449632409375394e-14 0
3.000000000000002 4.514421041334796e-15 0
2.999999999999999 -7.913881228276758e-15 0
3.000000000000002 -8.079851189246656e-17 0
3 3.763821637065636e-15 0
2.999999999999994 1.623963141782803e-15 0
3.00000000000002 -9.719537651636869e-15 0
3.000000000000018 -9.32617787113634e-15 0
2.999999999999917 3.956224930286155e-14 0
2.99999999999998 2.211511433510323e-14 0
3.000000000000153 -1.043719258615092e-13 0
2.999999999999941 -1.686045792494838e-14 0
3.000000000000063 1.266453013522033e-13 0
3.00000000000029 -9.861999370896897e-14 0
2.999999999998873 2.861063440252139e-13 0
2.9999999999997 3.900029755508255e-13 0
3.000000000002353 -1.799628760188895e-12 0
2.99999999999889 -4.223320861069717e-13 0
3.000000000001658 3.430959630639985e-12 0
3.000000000003258 -1.13222966212349e-12 0
2.999999999984568 1.579202699970999e-12 0
3.00000000000339 4.178348891018253e-12 0
3.000000000006088 -2.106353606353767e-11 0
2.999999999973691 -4.434044230692842e-13 0
3.000000000100195 2.499786439232158e-11 0
3.000000000012983 -1.847359036548543e-11 0
2.999999999844531 6.933033194704158e-11 0
3.000000000110087 1.818055222644839e-11 0
2.999999999658443 -1.614805214780816e-10 0
2.999999999863491 4.207888897455892e-11 0
3.000000000862569 -8.029610774873032e-11 0
2.999999999781771 -1.01444808896675e-10 0
3.000000000294778 5.614346528696792e-10 0
3.000000000545678 3.992573096380153e-11 0
2.999999997342163 -7.386187570867466e-10 0
3.000000000388869 4.212984842020834e-10 0
3.000000000080917 -1.668203594307971e-09 0
2.999999998564911 -4.258251695593107e-10 0
3.000000006367832 3.285484118370605e-09 0
2.999999998238601 -1.403274512807137e-09 0
3.000000006446975 6.798403833371541e-09 0
3.000000000060463 7.555375795622528e-11 0
3.000000002193217 1.665433727981088e-09 0
3.000000001622463 2.721848377322173e-09 0
3.0000218419402 -2.82048174241178e-07 0
2.999922772311422 -3.288424371314327e-06 0
2.999999990229807 1.961130566364404e-09 0
2.999999998717182 2.481219229685079e-09 0
3.000018262097846 -3.370918767265126e-06 0
2.999993082085952 9.89577132912395e-07 0
2.999704865727944 8.151775099212939e-06 0
2.999999998360248 -6.800322510436286e-09 0
3.000000002010995 4.154459588409298e-09 0
2.999999975829152 -3.469217648869097e-08 0
3.000000341843979 -7.50602082453869e-08 0
2.999587195510693 2.157527645140261e-06 0
2.999916726273074 -6.786926195272691e-06 0
2.999451818633922 -5.736576067398392e-06 0
2.999702528700093 -8.848417931701009e-08 0
3.000021427711418 -5.516918617357427e-07 0
2.999951410225687 3.517361891581456e-06 0
3.000021407761449 -5.460055221527275e-07 0
3.000025413110614 1.849009701121139e-06 0
3.000008013190799 -8.461870510789099e-07 0
3.000028711210748 1.784166328195393e-08 0
2.999999180166494 -1.395603882813819e-08 0
2.999849416584215 7.511375244417105e-08 0
2.999997630725277 -2.481031947491247e-08 0
2.999999480022757 -2.113674287247432e-09 0
2.999999726733003 -2.562906468055584e-09 0
3.000001186820575 -1.138440945297615e-06 0
2.999999990691111 3.539632848257526e-09 0
3.00000000010342 7.777094364706823e-11 0
2.999999787882049 1.227972783909561e-09 0
3.000000000000139 -2.329034966015236e-14 0
2.383516929237103 -0.00551984694836517 0
3.000000278705318 2.335395190762462e-08 0
3.000000189792216 4.648782343531717e-09 0
3.000000013021607 -2.840465776949044e-09 0
2.999999962524682 -1.544762104020835e-09 0