<?xml version="1.0"?>
<VTKFile type="UnstructuredGrid">
  <UnstructuredGrid>
  <Piece NumberOfPoints="1224"  NumberOfCells="2290">
    <Points>
      <DataArray type="Float64" NumberOfComponents="3" format="ascii">
0 0 0
0.6 0 0
0.6 0.2 0
62 0.2 0
62 1 0
0 1 0
0.05454545454535233 0 0
0.1090909090906768 0 0
0.1636363636359771 0 0
0.2181818181812728 0 0
0.2727272727265793 0 0
0.3272727272720317 0 0
0.3818181818176247 0 0
0.4363636363632168 0 0
0.4909090909088285 0 0
0.5454545454544089 0 0
0.6 0.03999999999991203 0
0.6 0.07999999999979179 0
0.6 0.1199999999997886 0
0.6 0.1599999999998948 0
6.085885073571664 0.2 0
7.806901537145733 0.2 0
9.25882085804391 0.2 0
10.62223085415507 0.2 0
11.93129063345389 0.2 0
13.20604553740174 0.2 0
14.45658476032658 0.2 0
15.69042511975113 0.2 0
16.91224064469101 0.2 0
18.12516047470725 0.2 0
19.33141125063332 0.2 0
20.53259468849614 0.2 0
21.72987696863345 0.2 0
22.924155792487 0.2 0
24.11608290999978 0.2 0
25.30615297758813 0.2 0
26.49475685985572 0.2 0
27.68219675205252 0.2 0
28.86870941728858 0.2 0
30.05448049410479 0.2 0
31.23965727519687 0.2 0
32.42435637736405 0.2 0
33.60867101445041 0.2 0
34.79267548991651 0.2 0
35.9764295135877 0.2 0
37.1599809309256 0.2 0
38.3433683429376 0.2 0
39.52662280271922 0.2 0
40.7097694370071 0.2 0
41.89282852720221 0.2 0
43.07581652246866 0.2 0
44.25874673712084 0.2 0
45.44162998974301 0.2 0
46.62447505725623 0.2 0
47.80728906336402 0.2 0
48.99007780341019 0.2 0
50.17284615540979 0.2 0
51.35559798532691 0.2 0
52.53833633623607 0.2 0
53.721063937529 0.2 0
54.90378291230081 0.2 0
56.08649502225474 0.2 0
57.2692017783506 0.2 0
58.45190464847952 0.2 0
59.63460464508839 0.2 0
60.81730279998757 0.2 0
62 0.2533333333332341 0
62 0.3066666666664725 0
62 0.3599999999996274 0
62 0.413333333332804 0
62 0.4666666666659806 0
62 0.5199999999991571 0
62 0.5733333333323336 0
62 0.6266666666656895 0
62 0.6799999999991551 0
62 0.7333333333326146 0
62 0.7866666666660802 0
62 0.8399999999995775 0
62 0.8933333333330373 0
62 0.9466666666664969 0
60.82235811435005 1 0
59.64471711188275 1 0
58.46707792102229 1 0
57.28944157698805 1 0
56.1118091750993 1 0
54.93418196577738 1 0
53.75656152701658 1 0
52.57894942619749 1 0
51.40134811946611 1 0
50.22375986660301 1 0
49.04618784026901 1 0
47.86863603534255 1 0
46.69110872605929 1 0
45.51361198100348 1 0
44.33615221657671 1 0
43.158738565679 1 0
41.98138061539171 1 0
40.80409253349488 1 0
39.62688796884925 1 0
38.44978859698966 1 0
37.27281562921983 1 0
36.09600085114516 1 0
34.91937973244844 1 0
33.74299576263647 1 0
32.56690399409636 1 0
31.39117212561112 1 0
30.21588291418403 1 0
29.04113938397576 1 0
27.86707105033587 1 0
26.69382701589304 1 0
25.52159583897015 1 0
24.3506319908855 1 0
23.1811962488912 1 0
22.01366887631895 1 0
20.84847772912753 1 0
19.68615501815963 1 0
18.52735442197805 1 0
17.37286235578426 1 0
16.22364417069925 1 0
15.08082395158497 1 0
13.94572847076101 1 0
12.81989320640511 1 0
11.70483952630864 1 0
10.6020699449635 1 0
9.513038197767603 1 0
8.439937787733298 1 0
7.386011132781704 1 0
6.357963678299431 1 0
5.367729980363473 1 0
4.434136418956292 1 0
3.569656001228702 1 0
2.791610849799036 1 0
2.107025017862475 1 0
1.553847831659114 1 0
1.102788830155368 1 0
0.7446265466619647 1 0
0.4587286281540394 1 0
0.2160942848119229 1 0
0 0.9473684210524125 0
0 0.8947368421048248 0
0 0.8421052631576025 0
0 0.7894736842105994 0
0 0.7368421052635962 0
0 0.6842105263165927 0
0 0.6315789473695894 0
0 0.5789473684225861 0
0 0.5263157894755828 0
0 0.4736842105282874 0
0 0.4210526315806998 0
0 0.3684210526331123 0
0 0.3157894736855248 0
0 0.2631578947379374 0
0 0.21052631579035 0
0 0.1578947368427625 0
0 0.1052631578951749 0
0 0.05263157894758741 0
4.074824857506715 0.955462795473483 0
4.862537190583411 0.2394317949808221 0
11.17045132634926 0.9557759867023439 0
52.05419832894634 0.9559758769411787 0
47.27985907171119 0.9559648099769389 0
42.57002958566929 0.9559648099769389 0
37.86123460767595 0.9559648099772646 0
33.21538340148083 0.9560078743553572 0
28.51305793891123 0.9561420672712786 0
23.76514531750912 0.95627738856474 0
19.10509721391793 0.9563034567995272 0
0.1123097835051752 0.5498854761242812 0
15.07727188374295 0.2442383967812095 0
49.61762768781614 0.2421522008426663 0
44.85015734681538 0.243586373321511 0
40.11824283525228 0.24363095694403 0
35.38471083937624 0.2436741865527954 0
30.64736818143782 0.2437170671454607 0
25.90099620253033 0.2437587738062726 0
21.13224064136946 0.2442249255777628 0
2.529118230028626 0.2417757800606361 0
4.666873210663388 0.2785115072887754 0
60.8772332449575 0.5995349944823752 0
2.96344509592001 0.2791940688436214 0
4.501087074278686 0.3180386921514113 0
3.105132051782012 0.3181181454258206 0
4.32106568143825 0.3577335228902347 0
54.39169065533886 0.2416532643303031 0
3.10920700862541 0.3576683284772433 0
4.127964040863264 0.3976917483469583 0
5.305816669457472 0.3977458985417416 0
5.014846809412871 0.4382323507424581 0
6.157874351202609 0.4382172989803606 0
5.815026287728139 0.4790536480492864 0
6.923407090136653 0.4792447281197085 0
4.777376795255326 0.4817209888486334 0
1.798279442098332 0.9660670791366374 0
14.51220166464566 0.9559852449915113 0
6.543080810939533 0.5203953730037822 0
7.632486256564313 0.5205851219036783 0
55.6104457380932 0.9563165682871465 0
0.06191876612381794 0.2894490564426765 0
7.215942889988272 0.5622881188475496 0
8.298517039261842 0.5621981517123112 0
0.1386763770778707 0.7091098825652095 0
0.2891706699320002 0.04723774929726795 0
8.73392378855822 0.5200372393771872 0
9.389373423696362 0.562505099575485 0
7.863305318202049 0.6041261864689124 0
6.800204949542868 0.6041581669226386 0
60.9423098996661 0.4393531299125908 0
9.858969756618338 0.5199435586712576 0
10.50311656673763 0.5624873891767795 0
2.010367843442722 0.3174350849704655 0
2.129465300354294 0.3576870257641042 0
10.99239222052025 0.5195844107098163 0
11.63238354138442 0.5621174250913318 0
7.425001568634752 0.6460588488486728 0
6.387562990153071 0.6462390077748084 0
11.11153015078289 0.6067218912904607 0
12.25805381732336 0.6047738158182728 0
12.77181923543656 0.5617915498272615 0
13.39408836854606 0.6045430073239006 0
13.92163142970707 0.5614360364847856 0
14.53897034617801 0.6046345614192383 0
15.07454427091349 0.5613114208485291 0
15.69070757537645 0.604758732930365 0
16.22195917226887 0.5597386087889248 0
16.84972621026354 0.6042836632406788 0
17.40894168981228 0.5607219500906248 0
18.0170847003393 0.6043040651294929 0
18.5796585016875 0.5598592244124957 0
19.18553053049843 0.6040638744783449 0
19.75265234524099 0.5595216793632644 0
20.35633964039373 0.6038781229769293 0
20.92704181016844 0.5600604284234054 0
21.52886074292432 0.6038664424080111 0
22.091510175178 0.55874807111347 0
22.70172472424976 0.6035341865995129 0
23.27226813057263 0.5586520846649797 0
23.87809897065474 0.6034054551655909 0
24.45621852026683 0.558835304845746 0
25.05551843721888 0.6032503772964327 0
25.63564246023868 0.5587079795953892 0
26.2333049844742 0.6030926920218221 0
26.81450419831262 0.5580480170404921 0
27.41143327239972 0.6028436706904448 0
27.99361528766217 0.5577680566445021 0
28.58994813862796 0.6026435181305781 0
29.1729544496864 0.5575726351194972 0
29.76883185720335 0.6024617369905624 0
30.35250307133611 0.5573842056888257 0
30.94809353383981 0.6022873884346892 0
31.53222368604135 0.5572075399874397 0
32.1275162916432 0.6021111834258887 0
32.71206725182927 0.5570246051384745 0
33.30707912430581 0.6019307913070558 0
33.8919987088522 0.5568475628142857 0
34.48680676224848 0.6017522495250318 0
35.07201158694136 0.5566653603575672 0
35.66670432965425 0.601574020443024 0
36.25209396855155 0.5564884669211013 0
36.84665316114371 0.601395113412113 0
37.43222101719485 0.5563067813822595 0
38.02655526778541 0.6012129143420911 0
38.61236686123227 0.5561292537946573 0
39.20660793877671 0.601032757987411 0
39.79255701219913 0.5559477304122714 0
40.38684470713276 0.600855564813206 0
40.97279538180297 0.5557710179709322 0
41.56702635317037 0.6006760179252703 0
42.15304121308237 0.5555900146741853 0
42.74717499066931 0.6004921726308964 0
43.33328946293162 0.5554125217101814 0
43.92738025501734 0.6003111949874665 0
44.51355308630157 0.5552312296013228 0
45.10753789296368 0.6001298880828497 0
45.69382191092571 0.5550546947866846 0
46.28779681916163 0.599950595338254 0
46.87416062307112 0.5548708301001631 0
47.4682216436588 0.5997713467128002 0
48.05472798906287 0.5547000681173012 0
48.64892462454955 0.5996004731097838 0
49.23568661466294 0.5545095609010697 0
49.82992305841247 0.5994220729206983 0
50.41732220185323 0.5543494429014709 0
51.01130731530984 0.5993228147833797 0
51.60016988557036 0.5541346321759457 0
52.19572594488368 0.5992395038842441 0
52.78621406325942 0.5540180644105763 0
61.04913569676423 0.7598964409357507 0
53.38454209782828 0.5990918128353608 0
1.332736140686494 0.3159793431387367 0
1.465487960874293 0.357715436029677 0
0.9168622553778398 0.3157219358498637 0
1.017366501514304 0.3576135465858128 0
49.23955103937855 0.643990885448769 0
44.52123919280165 0.6444881680698032 0
16.29471596277368 0.6487487015028032 0
39.80083876567021 0.6452136474256573 0
35.08133809128844 0.6459229900926835 0
0.6514232431167907 0.3150377509381005 0
0.7215161386582466 0.3574251905568473 0
1.071848780390421 0.4002519798591844 0
30.36415472680393 0.6466170330762969 0
20.95849095201427 0.6479317947648683 0
25.65373716397125 0.6473399689389928 0
12.8772076449122 0.6483605753517908 0
6.99372918253648 0.6883083412871458 0
5.97861629013848 0.6885103796531055 0
53.97577470574087 0.5527758280498023 0
17.9503762869895 0.5148848291986879 0
52.7919654519238 0.6438096025956825 0
53.98298732006751 0.6437140715169269 0
23.8450828613573 0.5138574114565649 0
28.56789132751258 0.5115839513085039 0
33.28996690967197 0.5109012431757174 0
38.01226521057822 0.510388685431229 0
0.7592835870788111 0.4001745965167012 0
1.085556452854463 0.4433206937839571 0
42.73466206899734 0.5096846626216972 0
47.45751148093862 0.5089830538848221 0
[...]
    <PointData>
      <DataArray type="Float64" NumberOfComponents="3" Name="Velocity" format="ascii">
-nan -nan 0
-nan -nan 0
-nan -nan 0
-nan -nan 0
-nan -nan 0
-nan -nan 0
-nan -nan 0
-nan -nan 0
-nan -nan 0
-nan -nan 0
-nan -nan 0
-nan -nan 0
-nan -nan 0
-nan -nan 0
-nan -nan 0
-nan -nan 0
-nan -nan 0
-nan -nan 0
-nan -nan 0
-nan -nan 0
-nan -nan 0
-nan -nan 0
-nan -nan 0
-nan -nan 0
-nan -nan 0
-nan -nan 0
-nan -nan 0
-nan -nan 0
-nan -nan 0
-nan -nan 0
-nan -nan 0
-nan -nan 0
-nan -nan 0
-nan -nan 0
-nan -nan 0
-nan -nan 0
-nan -nan 0
-nan -nan 0
-nan -nan 0
-nan -nan 0
-nan -nan 0
-nan -nan 0
-nan -nan 0
-nan -nan 0
-nan -nan 0
-nan -nan 0
-nan -nan 0
-nan -nan 0
-nan -nan 0
-nan -nan 0
-nan -nan 0
-nan -nan 0
-nan -nan 0
-nan -nan 0
-nan -nan 0
-nan -nan 0
-nan -nan 0
-nan -nan 0
-nan -nan 0
-nan -nan 0
-nan -nan 0
-nan -nan 0
-nan -nan 0
-nan -nan 0
-nan -nan 0
-nan -nan 0
-nan -nan 0
-nan -nan 0
-nan -nan 0
-nan -nan 0
-nan -nan 0
-nan -nan 0
-nan -nan 0
-nan -nan 0
-nan -nan 0
-nan -nan 0
-nan -nan 0
-nan -nan 0
-nan -nan 0
-nan -nan 0
-nan -nan 0
-nan -nan 0
-nan -nan 0
-nan -nan 0
-nan -nan 0
-nan -nan 0
-nan -nan 0
-nan -nan 0
-nan -nan 0
-nan -nan 0
-nan -nan 0
-nan -nan 0
-nan -nan 0
-nan -nan 0
-nan -nan 0
-nan -nan 0
-nan -nan 0
-nan -nan 0
-nan -nan 0
-nan -nan 0
-nan -nan 0
-nan -nan 0
-nan -nan 0
-nan -nan 0
-nan -nan 0
-nan -nan 0
-nan -nan 0
-nan -nan 0
-nan -nan 0
-nan -nan 0
-nan -nan 0
-nan -nan 0
-nan -nan 0
-nan -nan 0
-nan -nan 0
-nan -nan 0
-nan -nan 0
-nan -nan 0
-nan -nan 0
-nan -nan 0
-nan -nan 0
-nan -nan 0
-nan -nan 0
-nan -nan 0
-nan -nan 0
-nan -nan 0
-nan -nan 0
-nan -nan 0
-nan -nan 0
-nan -nan 0
-nan -nan 0
-nan -nan 0
-nan -nan 0
-nan -nan 0
-nan -nan 0
-nan -nan 0
-nan -nan 0
-nan -nan 0
-nan -nan 0
-nan -nan 0
-nan -nan 0
-nan -nan 0
-nan -nan 0
-nan -nan 0
-nan -nan 0
-nan -nan 0
-nan -nan 0
-nan -nan 0
-nan -nan 0
-nan -nan 0
-nan -nan 0
-nan -nan 0
-nan -nan 0
-nan -nan 0
-nan -nan 0
-nan -nan 0
-nan -nan 0
-nan -nan 0
-nan -nan 0
-nan -nan 0
-nan -nan 0
-nan -nan 0
-nan -nan 0
-nan -nan 0
-nan -nan 0
-nan -nan 0
-nan -nan 0
-nan -nan 0
-nan -nan 0
-nan -nan 0
-nan -nan 0
-nan -nan 0
-nan -nan 0
-nan -nan 0
-nan -nan 0
-nan -nan 0
-nan -nan 0
-nan -nan 0
-nan -nan 0
-nan -nan 0
-nan -nan 0
-nan -nan 0
-nan -nan 0
-nan -nan 0
-nan -nan 0
-nan -nan 0
-nan -nan 0
-nan -nan 0
-nan -nan 0
-nan -nan 0
-nan -nan 0
-nan -nan 0
-nan -nan 0
-nan -nan 0
-nan -nan 0
-nan -nan 0
-nan -nan 0
-nan -nan 0
-nan -nan 0
-nan -nan 0
-nan -nan 0
-nan -nan 0
-nan -nan 0
-nan -nan 0
-nan -nan 0
-nan -nan 0
-nan -nan 0
-nan -nan 0
-nan -nan 0
-nan -nan 0
-nan -nan 0
-nan -nan 0
-nan -nan 0
-nan -nan 0
-nan -nan 0
-nan -nan 0
-nan -nan 0
-nan -nan 0
-nan -nan 0
-nan -nan 0
-nan -nan 0
-nan -nan 0
-nan -nan 0
-nan -nan 0
-nan -nan 0
-nan -nan 0
-nan -nan 0
-nan -nan 0
-nan -nan 0
-nan -nan 0
-nan -nan 0
-nan -nan 0
-nan -nan 0
-nan -nan 0
-nan -nan 0
-nan -nan 0
-nan -nan 0
-nan -nan 0
-nan -nan 0
-nan -nan 0
-nan -nan 0
-nan -nan 0
-nan -nan 0
-nan -nan 0
-nan -nan 0
-nan -nan 0
-nan -nan 0
-nan -nan 0
-nan -nan 0
-nan -nan 0
-nan -nan 0
-nan -nan 0
-nan -nan 0
-nan -nan 0
-nan -nan 0
-nan -nan 0
-nan -nan 0
-nan -nan 0
-nan -nan 0
-nan -nan 0
-nan -nan 0
-nan -nan 0
-nan -nan 0
-nan -nan 0
-nan -nan 0
-nan -nan 0
-nan -nan 0
-nan -nan 0
-nan -nan 0
-nan -nan 0
-nan -nan 0
-nan -nan 0
-nan -nan 0
-nan -nan 0
-nan -nan 0
-nan -nan 0
-nan -nan 0
-nan -nan 0
-nan -nan 0
-nan -nan 0
-nan -nan 0
-nan -nan 0
-nan -nan 0
-nan -nan 0
-nan -nan 0
-nan -nan 0
-nan -nan 0
-nan -nan 0
-nan -nan 0
-nan -nan 0
-nan -nan 0
-nan -nan 0
-nan -nan 0
-nan -nan 0
-nan -nan 0
-nan -nan 0
-nan -nan 0
-nan -nan 0
-nan -nan 0
-nan -nan 0
-nan -nan 0
-nan -nan 0
-nan -nan 0
-nan -nan 0
-nan -nan 0
-nan -nan 0
-nan -nan 0
-nan -nan 0
-nan -nan 0
-nan -nan 0
-nan -nan 0
-nan -nan 0
-nan -nan 0
-nan -nan 0
-nan -nan 0
-nan -nan 0
-nan -nan 0
-nan -nan 0
-nan -nan 0
-nan -nan 0
-nan -nan 0
-nan -nan 0
-nan -nan 0
-nan -nan 0
-nan -nan 0
-nan -nan 0
-nan -nan 0
-nan -nan 0
-nan -nan 0
-nan -nan 0
-nan -nan 0
-nan -nan 0
-nan -nan 0
-nan -nan 0
-nan -nan 0
-nan -nan 0
-nan -nan 0
-nan -nan 0
-nan -nan 0
-nan -nan 0
-nan -nan 0
-nan -nan 0
-nan -nan 0
-nan -nan 0
-nan -nan 0
-nan -nan 0
-nan -nan 0
-nan -nan 0
-nan -nan 0
-nan -nan 0
-nan -nan 0
-nan -nan 0
-nan -nan 0
-nan -nan 0
-nan -nan 0
-nan -nan 0
-nan -nan 0
-nan -nan 0
-nan -nan 0
-nan -nan 0
-nan -nan 0
-nan -nan 0
-nan -nan 0
-nan -nan 0
-nan -nan 0
-nan -nan 0
-nan -nan 0
-nan -nan 0
-nan -nan 0
-nan -nan 0
-nan -nan 0
-nan -nan 0
-nan -nan 0
-nan -nan 0
-nan -nan 0
-nan -nan 0
-nan -nan 0
-nan -nan 0
-nan -nan 0
-nan -nan 0
-nan -nan 0
-nan -nan 0
-nan -nan 0
-nan -nan 0
-nan -nan 0
-nan -nan 0
-nan -nan 0
-nan -nan 0
-nan -nan 0
-nan -nan 0
-nan -nan 0
-nan -nan 0
-nan -nan 0
-nan -nan 0
-nan -nan 0
-nan -nan 0
-nan -nan 0
-nan -nan 0
-nan -nan 0
-nan -nan 0
-nan -nan 0
-nan -nan 0
-nan -nan 0
-nan -nan 0
-nan -nan 0
-nan -nan 0
-nan -nan 0
-nan -nan 0
-nan -nan 0
-nan -nan 0
-nan -nan 0
-nan -nan 0
-nan -nan 0
-nan -nan 0
-nan -nan 0
-nan -nan 0
-nan -nan 0
-nan -nan 0
-nan -nan 0
-nan -nan 0
-nan -nan 0
-nan -nan 0
-nan -nan 0
-nan -nan 0
-nan -nan 0
-nan -nan 0
-nan -nan 0
-nan -nan 0
-nan -nan 0
-nan -nan 0
-nan -nan 0
-nan -nan 0
-nan -nan 0
-nan -nan 0
-nan -nan 0
-nan -nan 0
-nan -nan 0
-nan -nan 0
-nan -nan 0
-nan -nan 0
-nan -nan 0
-nan -nan 0
-nan -nan 0
-nan -nan 0
-nan -nan 0
-nan -nan 0
-nan -nan 0
-nan -nan 0
-nan -nan 0
-nan -nan 0
-nan -nan 0
-nan -nan 0
-nan -nan 0
-nan -nan 0
-nan -nan 0
-nan -nan 0
-nan -nan 0
-nan -nan 0
-nan -nan 0
-nan -nan 0
-nan -nan 0
-nan -nan 0
-nan -nan 0
-nan -nan 0
-nan -nan 0
-nan -nan 0
-nan -nan 0
-nan -nan 0
-nan -nan 0
-nan -nan 0
-nan -nan 0
-nan -nan 0
-nan -nan 0
-nan -nan 0
-nan -nan 0
-nan -nan 0
-nan -nan 0
-nan -nan 0
-nan -nan 0
-nan -nan 0
-nan -nan 0
-nan -nan 0
-nan -nan 0
-nan -nan 0
-nan -nan 0
-nan -nan 0
-nan -nan 0
-nan -nan 0
-nan -nan 0
-nan -nan 0
-nan -nan 0
-nan -nan 0
-nan -nan 0
-nan -nan 0
-nan -nan 0
-nan -nan 0
-nan -nan 0
-nan -nan 0
-nan -nan 0
-nan -nan 0
-nan -nan 0
-nan -nan 0
-nan -nan 0
-nan -nan 0
-nan -nan 0
-nan -nan 0
-nan -nan 0
-nan -nan 0
-nan -nan 0
-nan -nan 0
-nan -nan 0
-nan -nan 0
-nan -nan 0
-nan -nan 0
-nan -nan 0
-nan -nan 0
-nan -nan 0
-nan -nan 0
-nan -nan 0
-nan -nan 0
-nan -nan 0
-nan -nan 0
-nan -nan 0
-nan -nan 0
-nan -nan 0
-nan -nan 0
-nan -nan 0
-nan -nan 0
-nan -nan 0
-nan -nan 0
-nan -nan 0
-nan -nan 0
-nan -nan 0
-nan -nan 0
-nan -nan 0
-nan -nan 0
-nan -nan 0
-nan -nan 0
-nan -nan 0
-nan -nan 0
-nan -nan 0
-nan -nan 0
-nan -nan 0
-nan -nan 0
-nan -nan 0
-nan -nan 0
-nan -nan 0
-nan -nan 0
-nan -nan 0
-nan -nan 0
-nan -nan 0
-nan -nan 0
-nan -nan 0
-nan -nan 0
-nan -nan 0
-nan -nan 0
-nan -nan 0
-nan -nan 0
-nan -nan 0
-nan -nan 0
-nan -nan 0
-nan -nan 0
-nan -nan 0
-nan -nan 0
-nan -nan 0
-nan -nan 0
-nan -nan 0
-nan -nan 0
-nan -nan 0
-nan -nan 0
-nan -nan 0
-nan -nan 0
-nan -nan 0
-nan -nan 0
-nan -nan 0
-nan -nan 0
-nan -nan 0
-nan -nan 0
-nan -nan 0
-nan -nan 0
-nan -nan 0
-nan -nan 0
-nan -nan 0
-nan -nan 0
-nan -nan 0
-nan -nan 0
-nan -nan 0
-nan -nan 0
-nan -nan 0
-nan -nan 0
-nan -nan 0
-nan -nan 0
-nan -nan 0
-nan -nan 0
-nan -nan 0
-nan -nan 0
-nan -nan 0
-nan -nan 0
-nan -nan 0
-nan -nan 0
-nan -nan 0
-nan -nan 0
-nan -nan 0
-nan -nan 0
-nan -nan 0
-nan -nan 0
-nan -nan 0
-nan -nan 0
-nan -nan 0
-nan -nan 0
-nan -nan 0
-nan -nan 0
-nan -nan 0
-nan -nan 0
-nan -nan 0
-nan -nan 0
-nan -nan 0
-nan -nan 0
-nan -nan 0
-nan -nan 0
-nan -nan 0
-nan -nan 0
-nan -nan 0
-nan -nan 0
-nan -nan 0
-nan -nan 0
-nan -nan 0
-nan -nan 0
-nan -nan 0
-nan -nan 0
-nan -nan 0
-nan -nan 0
-nan -nan 0
-nan -nan 0
-nan -nan 0
-nan -nan 0
-nan -nan 0
-nan -nan 0
-nan -nan 0
-nan -nan 0
-nan -nan 0
-nan -nan 0
-nan -nan 0
-nan -nan 0
-nan -nan 0
-nan -nan 0
-nan -nan 0
-nan -nan 0
-nan -nan 0
-nan -nan 0
-nan -nan 0
-nan -nan 0
-nan -nan 0
-nan -nan 0
-nan -nan 0
-nan -nan 0
-nan -nan 0
-nan -nan 0
-nan -nan 0
-nan -nan 0
-nan -nan 0
-nan -nan 0
-nan -nan 0
-nan -nan 0
-nan -nan 0
-nan -nan 0
-nan -nan 0
-nan -nan 0
-nan -nan 0
-nan -nan 0
-nan -nan 0
-nan -nan 0
-nan -nan 0
-nan -nan 0
-nan -nan 0
-nan -nan 0
-nan -nan 0
-nan -nan 0
-nan -nan 0
-nan -nan 0
-nan -nan 0
-nan -nan 0
-nan -nan 0
-nan -nan 0
-nan -nan 0
-nan -nan 0
-nan -nan 0
-nan -nan 0
-nan -nan 0
-nan -nan 0
-nan -nan 0
-nan -nan 0
-nan -nan 0
-nan -nan 0
-nan -nan 0
-nan -nan 0
-nan -nan 0
-nan -nan 0
-nan -nan 0
-nan -nan 0
-nan -nan 0
-nan -nan 0
-nan -nan 0
-nan -nan 0
-nan -nan 0
-nan -nan 0
-nan -nan 0
-nan -nan 0
-nan -nan 0
-nan -nan 0
-nan -nan 0
-nan -nan 0
-nan -nan 0
-nan -nan 0
-nan -nan 0
-nan -nan 0
-nan -nan 0
-nan -nan 0
-nan -nan 0
-nan -nan 0
-nan -nan 0
-nan -nan 0
-nan -nan 0
-nan -nan 0
-nan -nan 0
-nan -nan 0
-nan -nan 0
-nan -nan 0
-nan -nan 0
-nan -nan 0
-nan -nan 0
-nan -nan 0
-nan -nan 0
-nan -nan 0
-nan -nan 0
-nan -nan 0
-nan -nan 0
-nan -nan 0
-nan -nan 0
-nan -nan 0
-nan -nan 0
-nan -nan 0
-nan -nan 0
-nan -nan 0
-nan -nan 0
-nan -nan 0
-nan -nan 0
-nan -nan 0
-nan -nan 0
-nan -nan 0
-nan -nan 0
-nan -nan 0
-nan -nan 0
-nan -nan 0
-nan -nan 0
-nan -nan 0
-nan -nan 0
-nan -nan 0
-nan -nan 0
-nan -nan 0
-nan -nan 0
-nan -nan 0
-nan -nan 0
-nan -nan 0
-nan -nan 0
-nan -nan 0
-nan -nan 0
-nan -nan 0
-nan -nan 0
-nan -nan 0
-nan -nan 0
-nan -nan 0
-nan -nan 0
-nan -nan 0
-nan -nan 0
-nan -nan 0
-nan -nan 0
-nan -nan 0
-nan -nan 0
-nan -nan 0
-nan -nan 0
-nan -nan 0
-nan -nan 0
-nan -nan 0
-nan -nan 0
-nan -nan 0
-nan -nan 0
-nan -nan 0
-nan -nan 0
-nan -nan 0
-nan -nan 0
-nan -nan 0
-nan -nan 0
-nan -nan 0
-nan -nan 0
-nan -nan 0
-nan -nan 0
-nan -nan 0
-nan -nan 0
-nan -nan 0
-nan -nan 0
-nan -nan 0
-nan -nan 0
-nan -nan 0
-nan -nan 0
-nan -nan 0
-nan -nan 0
-nan -nan 0
-nan -nan 0
-nan -nan 0
-nan -nan 0
-nan -nan 0
-nan -nan 0
-nan -nan 0
-nan -nan 0
-nan -nan 0
-nan -nan 0
-nan -nan 0
-nan -nan 0
-nan -nan 0
-nan -nan 0
-nan -nan 0
-nan -nan 0
-nan -nan 0
-nan -nan 0
-nan -nan 0
-nan -nan 0
-nan -nan 0
-nan -nan 0
-nan -nan 0
-nan -nan 0
-nan -nan 0
-nan -nan 0
-nan -nan 0
-nan -nan 0
-nan -nan 0
-nan -nan 0
-nan -nan 0
-nan -nan 0
-nan -nan 0
-nan -nan 0
-nan -nan 0
-nan -nan 0
-nan -nan 0
-nan -nan 0
-nan -nan 0
-nan -nan 0
-nan -nan 0
-nan -nan 0
-nan -nan 0
-nan -nan 0
-nan -nan 0
-nan -nan 0
-nan -nan 0
-nan -nan 0
-nan -nan 0
-nan -nan 0
-nan -nan 0
-nan -nan 0
-nan -nan 0
-nan -nan 0
-nan -nan 0
-nan -nan 0
-nan -nan 0
-nan -nan 0
-nan -nan 0
-nan -nan 0
-nan -nan 0
-nan -nan 0
-nan -nan 0
-nan -nan 0
-nan -nan 0
-nan -nan 0
-nan -nan 0
-nan -nan 0
-nan -nan 0
-nan -nan 0
-nan -nan 0
-nan -nan 0
-nan -nan 0
-nan -nan 0
-nan -nan 0
-nan -nan 0
-nan -nan 0
-nan -nan 0
-nan -nan 0
-nan -nan 0
-nan -nan 0
-nan -nan 0
-nan -nan 0
-nan -nan 0
-nan -nan 0
-nan -nan 0
-nan -nan 0
-nan -nan 0
-nan -nan 0
-nan -nan 0
-nan -nan 0
-nan -nan 0
-nan -nan 0
-nan -nan 0
-nan -nan 0
-nan -nan 0
-nan -nan 0
-nan -nan 0
-nan -nan 0
-nan -nan 0
-nan -nan 0
-nan -nan 0
-nan -nan 0
-nan -nan 0
-nan -nan 0
-nan -nan 0
-nan -nan 0
-nan -nan 0
-nan -nan 0
-nan -nan 0
-nan -nan 0
-nan -nan 0
-nan -nan 0
-nan -nan 0
-nan -nan 0
-nan -nan 0
-nan -nan 0
-nan -nan 0
-nan -nan 0
-nan -nan 0
-nan -nan 0
-nan -nan 0
-nan -nan 0
-nan -nan 0
-nan -nan 0
-nan -nan 0
-nan -nan 0
-nan -nan 0
-nan -nan 0
-nan -nan 0
-nan -nan 0
-nan -nan 0
-nan -nan 0
-nan -nan 0
-nan -nan 0
-nan -nan 0
-nan -nan 0
-nan -nan 0
-nan -nan 0
-nan -nan 0
-nan -nan 0
-nan -nan 0
-nan -nan 0
-nan -nan 0
-nan -nan 0
-nan -nan 0
-nan -nan 0
-nan -nan 0
-nan -nan 0
-nan -nan 0
-nan -nan 0
-nan -nan 0
-nan -nan 0
-nan -nan 0
-nan -nan 0
-nan -nan 0
-nan -nan 0
-nan -nan 0
-nan -nan 0
-nan -nan 0
-nan -nan 0
-nan -nan 0
-nan -nan 0
-nan -nan 0
-nan -nan 0
-nan -nan 0
-nan -nan 0
-nan -nan 0
-nan -nan 0
-nan -nan 0
-nan -nan 0
-nan -nan 0
-nan -nan 0
-nan -nan 0
-nan -nan 0
-nan -nan 0
-nan -nan 0
-nan -nan 0
-nan -nan 0
-nan -nan 0
-nan -nan 0
-nan -nan 0
-nan -nan 0
-nan -nan 0
-nan -nan 0
-nan -nan 0
-nan -nan 0
-nan -nan 0
-nan -nan 0
-nan -nan 0
-nan -nan 0
-nan -nan 0
-nan -nan 0
-nan -nan 0
-nan -nan 0
-nan -nan 0
-nan -nan 0
-nan -nan 0
-nan -nan 0
-nan -nan 0
-nan -nan 0
-nan -nan 0
-nan -nan 0
-nan -nan 0
-nan -nan 0
-nan -nan 0
-nan -nan 0
-nan -nan 0
-nan -nan 0
-nan -nan 0
-nan -nan 0
-nan -nan 0
-nan -nan 0
-nan -nan 0
-nan -nan 0
-nan -nan 0
-nan -nan 0
-nan -nan 0
-nan -nan 0
-nan -nan 0
-nan -nan 0
-nan -nan 0
-nan -nan 0
-nan -nan 0
-nan -nan 0
-nan -nan 0
-nan -nan 0
-nan -nan 0
-nan -nan 0
-nan -nan 0
-nan -nan 0
-nan -nan 0
-nan -nan 0
-nan -nan 0
-nan -nan 0
-nan -nan 0
-nan -nan 0
-nan -nan 0
-nan -nan 0
-nan -nan 0
-nan -nan 0
-nan -nan 0
-nan -nan 0
-nan -nan 0
-nan -nan 0
-nan -nan 0
-nan -nan 0
-nan -nan 0
-nan -nan 0
-nan -nan 0
-nan -nan 0
-nan -nan 0
-nan -nan 0
-nan -nan 0
-nan -nan 0
-nan -nan 0
-nan -nan 0
-nan -nan 0
-nan -nan 0
-nan -nan 0
-nan -nan 0
-nan -nan 0
-nan -nan 0
-nan -nan 0
-nan -nan 0
-nan -nan 0
-nan -nan 0
-nan -nan 0
-nan -nan 0
-nan -nan 0
-nan -nan 0
-nan -nan 0
-nan -nan 0
-nan -nan 0
-nan -nan 0
-nan -nan 0
-nan -nan 0
-nan -nan 0
-nan -nan 0
-nan -nan 0
-nan -nan 0
-nan -nan 0
-nan -nan 0
-nan -nan 0
-nan -nan 0
-nan -nan 0
-nan -nan 0
-nan -nan 0
-nan -nan 0
-nan -nan 0
-nan -nan 0
-nan -nan 0
-nan -nan 0
-nan -nan 0
-nan -nan 0
-nan -nan 0
-nan -nan 0
-nan -nan 0
-nan -nan 0
-nan -nan 0
-nan -nan 0
-nan -nan 0
-nan -nan 0
-nan -nan 0
-nan -nan 0
-nan -nan 0
-nan -nan 0
-nan -nan 0
-nan -nan 0
-nan -nan 0
-nan -nan 0
-nan -nan 0
-nan -nan 0
-nan -nan 0
-nan -nan 0
-nan -nan 0
-nan -nan 0
-nan -nan 0
-nan -nan 0
-nan -nan 0
-nan -nan 0
-nan -nan 0
-nan -nan 0
-nan -nan 0
-nan -nan 0
-nan -nan 0
-nan -nan 0
-nan -nan 0
-nan -nan 0
-nan -nan 0
-nan -nan 0
-nan -nan 0
-nan -nan 0
-nan -nan 0
-nan -nan 0
-nan -nan 0
-nan -nan 0
-nan -nan 0
-nan -nan 0
-nan -nan 0
-nan -nan 0
-nan -nan 0
-nan -nan 0
-nan -nan 0
-nan -nan 0
-nan -nan 0
-nan -nan 0
-nan -nan 0
-nan -nan 0
-nan -nan 0
-nan -nan 0
-nan -nan 0
-nan -nan 0
-nan -nan 0
-nan -nan 0
-nan -nan 0
-nan -nan 0
-nan -nan 0
-nan -nan 0
-nan -nan 0
-nan -nan 0
-nan -nan 0
-nan -nan 0
-nan -nan 0
-nan -nan 0
-nan -nan 0
-nan -nan 0
-nan -nan 0
-nan -nan 0
-nan -nan 0
-nan -nan 0
-nan -nan 0
-nan -nan 0
-nan -nan 0
-nan -nan 0
-nan -nan 0
-nan -nan 0
-nan -nan 0
-nan -nan 0
-nan -nan 0
-nan -nan 0
-nan -nan 0
-nan -nan 0
-nan -nan 0
-nan -nan 0
-nan -nan 0
-nan -nan 0
-nan -nan 0
-nan -nan 0
-nan -nan 0
-nan -nan 0
-nan -nan 0
-nan -nan 0
-nan -nan 0
-nan -nan 0
-nan -nan 0
-nan -nan 0
-nan -nan 0
-nan -nan 0
-nan -nan 0
-nan -nan 0
-nan -nan 0
-nan -nan 0
-nan -nan 0
-nan -nan 0
-nan -nan 0
-nan -nan 0
-nan -nan 0
-nan -nan 0
-nan -nan 0
-nan -nan 0
-nan -nan 0
-nan -nan 0
-nan -nan 0
-nan -nan 0
-nan -nan 0
-nan -nan 0
      </DataArray> 
      <DataArray type="Float64" NumberOfComponents="3" Name="MeshDisp" format="ascii">
0 0 0
0 0 0
0 0 0
0.9999999999999999 0 0
1 0 0
0 0 0
0 0 0
0 0 0
0 0 0
0 0 0
0 0 0
0 0 0
0 0 0
0 0 0
0 0 0
0 0 0
0 0 0
0 0 0
0 0 0
0 0 0
0.08749196145672045 0 0
0.1151631537211578 0 0
0.138641269249712 0 0
0.1607433801708412 0 0
0.1820154556223067 0 0
0.2027721957210922 0 0
0.2231548628226791 0 0
0.2432794703959627 0 0
0.2632184550787631 0 0
0.2830203176786564 0 0
0.3027189979491592 0 0
0.3223388588722728 0 0
0.3418980001513331 0 0
0.3614101275412772 0 0
0.3808853038087274 0 0
0.4003312577356015 0 0
0.4197540560290584 0 0
0.4391584259130413 0 0
0.4585480722256413 0 0
0.4779259173245427 0 0
0.4972942814608439 0 0
0.5166550107604877 0 0
0.5360095813566127 0 0
0.5553591752992918 0 0
0.5747047431348647 0 0
0.5940470494804022 0 0
0.6133867116124564 0 0
0.6327242276772558 0 0
0.6520600009592885 0 0
0.6713943578589487 0 0
0.6907275632727355 0 0
0.7100598321131845 0 0
0.7293913390937804 0 0
0.7487222262045783 0 0
0.7680526087367617 0 0
0.7873825806236739 0 0
0.806712220906641 0 0
0.8260415923430908 0 0
0.8453707443850033 0 0
0.8646997213841321 0 0
0.8840285578624547 0 0
0.903357282491454 0 0
0.9226859198756723 0 0
0.9420144938940614 0 0
0.961343021085784 0 0
0.9806715182958026 0 0
1 0 0
1 0 0
0.9999999999999999 0 0
0.9999999999999999 0 0
0.9999999999999999 0 0
0.9999999999999999 0 0
1 0 0
0.9999999999999999 0 0
0.9999999999999999 0 0
1 0 0
1 0 0
1 0 0
1 0 0
1 0 0
0.9807541358519523 0 0
0.9615082862408071 0 0
0.9422624663414058 0 0
0.9230166930937787 0 0
0.9037709844374703 0 0
0.8845253608753961 0 0
0.8652798483057562 0 0
0.846034472421479 0 0
0.8267892736011664 0 0
0.8075442889512457 0 0
0.7882995706267761 0 0
0.7690551844208512 0 0
0.7498112006478378 0 0
0.7305677194355674 0 0
0.711324846486957 0 0
0.6920827328252794 0 0
0.6728415367658701 0 0
0.6536014931284524 0 0
0.6343628273027758 0 0
0.6151259003155662 0 0
0.5958910634465657 0 0
0.576658847640941 0 0
0.557429844202356 0 0
0.5382047805209648 0 0
0.5189845788007388 0 0
0.4997703780639558 0 0
0.4805635709689507 0 0
0.4613659014486647 0 0
0.442179567202199 0 0
0.4230071051105608 0 0
0.4038517362159196 0 0
0.3847178207217085 0 0
0.3656098413057259 0 0
0.3465344466983827 0 0
0.3274991055506348 0 0
0.3085131721691897 0 0
0.2895881922014542 0 0
0.2707380117924266 0 0
0.2519799199153244 0 0
0.2333343123324137 0 0
0.2148259949361591 0 0
0.1964851408844804 0 0
0.1783420873692228 0 0
0.16042799983797 0 0
0.1427745891520109 0 0
0.1254250613149286 0 0
0.1084317377331842 0 0
0.09190483665361369 0 0
0.0760301842416297 0 0
0.06110135837400272 0 0
0.04731250592208906 0 0
0.03495907859225951 0 0
0.02419663524674281 0 0
0.01585689310139594 0 0
0.00953436048330039 0 0
0.005200633474328162 0 0
0.002545842438445267 0 0
0.0009334497978169816 0 0
0 0 0
0 0 0
0 0 0
0 0 0
0 0 0
0 0 0
0 0 0
0 0 0
0 0 0
0 0 0
0 0 0
0 0 0
0 0 0
0 0 0
0 0 0
0 0 0
0 0 0
0 0 0
0.05536528944496354 0 0
0.06796253002470543 0 0
0.1696571410914079 0 0
0.8374586163620215 0 0
0.759432974725418 0 0
0.6824616433708716 0 0
0.6055073751425077 0 0
0.5295822985188273 0 0
0.4527360828365843 0 0
0.3751511140357345 0 0
0.2990231153252731 0 0
4.661799626787374e-05 0 0
0.2332770812078616 0 0
0.7976384462729049 0 0
0.7197250780858711 0 0
0.6423928756354658 0 0
0.5650345394608121 0 0
0.4876149649459839 0 0
0.4100514133431097 0 0
0.3321345293023836 0 0
0.03074161568821901 0 0
0.06483774640552095 0 0
0.9816509443813033 0 0
0.0376765650829092 0 0
0.06218974703765517 0 0
0.03993802891306814 0 0
0.05931504314889455 0 0
0.8756595811582014 0 0
0.0400013804989478 0 0
0.05623222760853928 0 0
0.07504405028143669 0 0
0.07039160142200585 0 0
0.08868514537764476 0 0
0.08319301629704216 0 0
0.1009760043050953 0 0
0.06659588747842952 0 0
0.01949290294692834 0 0
0.2240609384402164 0 0
0.09486907544793842 0 0
0.1123891165076176 0 0
0.8955773456186316 0 0
-0.0004392404190535131 0 0
0.1056853960033179 0 0
0.1231317510295094 0 0
0.0003825479140035817 0 0
-0.0009806554226690952 0 0
0.1301626949724221 0 0
0.1407667318804068 0 0
0.1161130699712474 0 0
0.0990022716296147 0 0
0.9827144735213545 0 0
0.148371726157839 0 0
0.1588184777085324 0 0
0.02242947696243593 0 0
0.02434752724617168 0 0
0.1667607130424062 0 0
0.1771615037571386 0 0
0.1090535656410729 0 0
0.09237681205664611 0 0
0.1686975611049697 0 0
0.1873385516111896 0 0
0.1957007009500962 0 0
0.2058359975359118 0 0
0.2144327863309691 0 0
0.2244974092570728 0 0
0.2332320620029784 0 0
0.2432837835048365 0 0
0.2519525605943769 0 0
0.262198416730293 0 0
0.2713270777657072 0 0
0.2812560017435675 0 0
0.29044216971959 0 0
0.3003366355278316 0 0
0.3095991967145316 0 0
0.3194598764404242 0 0
0.3287824632193214 0 0
0.3386140067217143 0 0
0.3478061738928996 0 0
0.3577759180505298 0 0
0.367097889593109 0 0
0.3769967434628931 0 0
0.3864430941843914 0 0
0.3962357814144095 0 0
0.4057153355579743 0 0
0.4154816626606459 0 0
0.4249791149848762 0 0
0.4347337472471501 0 0
0.4442475048666105 0 0
0.4539926071786509 0 0
0.4635200138415571 0 0
0.4732578309698628 0 0
0.4827962359951266 0 0
0.4925294798429768 0 0
0.5020754822564265 0 0
0.5118039434612387 0 0
0.5213568943308172 0 0
0.5310808301990797 0 0